,index,name,metal_complex,SMILES,max_absorption_peak,max_emission_peak,solvant_spectrum,molar_extinction_coefficient,quantum_yield_fluorescence,max_phosphorescence_peak,quantum_yield_singlet_oxygen,solvant_quantum_yield,energy_level_exited_triplet_state,energy_level_HUMO,energy_level_LUMO,difference_HOMO_and_LUMO,method_for_HOMO/LUMO,all_absoption_peaks,reference_DOI
388,2_193,BODIPY PS2,FALSE,CC4=C2N(C(C)=C4)[B](F)(F)[N]1=C(C)C=C(C)C1=C2C3=C(OC)C=CC=C3,502,514,EtOAc,,0.76,,0.057,EtOAc,,,,,,,10.1016/j.dyepig.2019.01.019
389,2_193,BODIPY PS2,FALSE,CC4=C2N(C(C)=C4)[B](F)(F)[N]1=C(C)C=C(C)C1=C2C3=C(OC)C=CC=C3,503,516,THF,,0.87,,0.061,THF,,,,,,,10.1016/j.dyepig.2019.01.019
390,2_193,BODIPY PS2,FALSE,CC4=C2N(C(C)=C4)[B](F)(F)[N]1=C(C)C=C(C)C1=C2C3=C(OC)C=CC=C3,504,516,n-hexane,,0.98,,0.029,n-hexane,,,,,,,10.1016/j.dyepig.2019.01.019
391,2_193,BODIPY PS2,FALSE,CC4=C2N(C(C)=C4)[B](F)(F)[N]1=C(C)C=C(C)C1=C2C3=C(OC)C=CC=C3,500,514,MeOH,,0.69,,0.021,MeOH,,,,,,,10.1016/j.dyepig.2019.01.019
392,2_193,BODIPY PS26,FALSE,CC4=C2N(C(C)=C4)[B](F)(F)[N]1=C(C)C=C(C)C1=C2C3=C(OC)C=CC=C3,500,513,CH3CN,,0.54,,0.18,CH3CN,,,,,,,10.1016/j.dyepig.2019.01.019
393,2_193,BODIPY PS26,FALSE,CC4=C2N(C(C)=C4)[B](F)(F)[N]1=C(C)C=C(C)C1=C2C3=C(OC)C=CC=C3,503,516,Acetone,,0.72,,0.082,Acetone,,,,,,,10.1016/j.dyepig.2019.01.019
394,2_193,BODIPY PS26,FALSE,CC4=C2N(C(C)=C4)[B](F)(F)[N]1=C(C)C=C(C)C1=C2C3=C(OC)C=CC=C3,505,520,Pinacolone,,0.64,,0.081,Pinacolone,,,,,,,10.1016/j.dyepig.2019.01.019
395,2_193,BODIPY PS26,FALSE,CC4=C2N(C(C)=C4)[B](F)(F)[N]1=C(C)C=C(C)C1=C2C3=C(OC)C=CC=C3,504,520,EtOAc,,0.47,,0.073,EtOAc,,,,,,,10.1016/j.dyepig.2019.01.019
396,2_193,BODIPY PS26,FALSE,CC4=C2N(C(C)=C4)[B](F)(F)[N]1=C(C)C=C(C)C1=C2C3=C(OC)C=CC=C3,506,520,THF,,0.64,,0.051,THF,,,,,,,10.1016/j.dyepig.2019.01.019
397,2_193,BODIPY PS26,FALSE,CC4=C2N(C(C)=C4)[B](F)(F)[N]1=C(C)C=C(C)C1=C2C3=C(OC)C=CC=C3,507,519,n-hexane,,0.71,,0.04,n-hexane,,,,,,,10.1016/j.dyepig.2019.01.019
398,2_193,BODIPY PS26,FALSE,CC4=C2N(C(C)=C4)[B](F)(F)[N]1=C(C)C=C(C)C1=C2C3=C(OC)C=CC=C3,503,518,MeOH,,0.58,,0.036,MeOH,,,,,,,10.1016/j.dyepig.2019.01.019
399,2_195,BODIPY PS246,FALSE,CC4=C2N(C(C)=C4)[B](F)(F)[N]1=C(C)C=C(C)C1=C2C3=C(OC)C=C(OC)C=C3OC,501,513,CH3CN,,0.55,,0.31,CH3CN,,,,,,,10.1016/j.dyepig.2019.01.019
400,2_195,BODIPY PS246,FALSE,CC4=C2N(C(C)=C4)[B](F)(F)[N]1=C(C)C=C(C)C1=C2C3=C(OC)C=C(OC)C=C3OC,503,515,Acetone,,0.8,,0.11,Acetone,,,,,,,10.1016/j.dyepig.2019.01.019
401,2_195,BODIPY PS246,FALSE,CC4=C2N(C(C)=C4)[B](F)(F)[N]1=C(C)C=C(C)C1=C2C3=C(OC)C=C(OC)C=C3OC,505,517,Pinacolone,,0.69,,0.16,Pinacolone,,,,,,,10.1016/j.dyepig.2019.01.019
402,2_195,BODIPY PS246,FALSE,CC4=C2N(C(C)=C4)[B](F)(F)[N]1=C(C)C=C(C)C1=C2C3=C(OC)C=C(OC)C=C3OC,503,511,EtOAc,,0.64,,0.063,EtOAc,,,,,,,10.1016/j.dyepig.2019.01.019
403,2_195,BODIPY PS246,FALSE,CC4=C2N(C(C)=C4)[B](F)(F)[N]1=C(C)C=C(C)C1=C2C3=C(OC)C=C(OC)C=C3OC,506,517,THF,,0.78,,0.059,THF,,,,,,,10.1016/j.dyepig.2019.01.019
404,2_195,BODIPY PS246,FALSE,CC4=C2N(C(C)=C4)[B](F)(F)[N]1=C(C)C=C(C)C1=C2C3=C(OC)C=C(OC)C=C3OC,505,520,n-hexane,,0.95,,0.024,n-hexane,,,,,,,10.1016/j.dyepig.2019.01.019
405,2_195,BODIPY PS246,FALSE,CC4=C2N(C(C)=C4)[B](F)(F)[N]1=C(C)C=C(C)C1=C2C3=C(OC)C=C(OC)C=C3OC,503,515,MeOH,,0.68,,0.074,MeOH,,,,,,,10.1016/j.dyepig.2019.01.019
406,2_196,aza-BODIPYs 1H,FALSE,F[B]2(F)[N]1=C(C6=CC=C(OC)C=C6)C([H])=C(C5=CC=CC=C5)C1=CC3=C(C4=CC=CC=C4)C([H])=C(C7=CC=C(OC)C=C7)N23,688,715,CH2Cl2,85000,0.36,,,,,-5.22,-3.27,-1.95,theoretical,,10.1016/j.cclet.2019.02.016
407,2_196,aza-BODIPYs 2H,FALSE,F[B]2(F)[N]1=C(C6=CC=C(OC)C=C6)C([H])=C(C5=CC=CC=C5)C1=CC3=C(C4=CC=CC=C4)C([H])=C(C7=CC=C(OC)C=C7)N23,706,733,CH2Cl2,89000,0.33,,,,,-4.99,-3.02,-1.97,theoretical,,10.1016/j.cclet.2019.02.016
408,2_198,aza-BODIPYs 4H,FALSE,F[B]2(F)[N]1=C(C6=CC(C=CC(OC)=C%11)=C%11C=C6)C=C(C5=CC=C(C=CC=C9)C9=C5)C1=CC3=C(C4=CC(C=CC=C8)=C8C=C4)C=C(C7=CC=C(C=C(OC)C=C%10)C%10=C7)N23,718,754,CH2Cl2,95000,0.29,,,,,-4.99,-3.04,-1.95,theoretical,,10.1016/j.cclet.2019.02.016
409,2_199,TMBDP,FALSE,CC2C([H])=C(C)N(C2=C3)[B](F)(F)N1C3=C(C)C([H])=C1C,436,,dichloromethane,,,,0.076,DPBF,,,,,,,10.3389/fphy.2018.00143
410,2_200,I2-TMBDP,FALSE,CC2C(I)=C(C)N(C2=C3)[B](F)(F)N1C3=C(C)C(I)=C1C,520,,dichloromethane,,,,0.96,DPBF,,,,,,,10.3389/fphy.2018.00143
411,2_201,TMBDP-dimer,FALSE,CC2C(C4C6N(C(C)=C([H])C6C)[B](F)(F)N5C4=C(C)C([H])=C5C)C(C)N(C2=C3)[B](F)(F)N1C3=C(C)C([H])=C1C,464,,dichloromethane,,,,0.45,DPBF,,,,,,,10.3389/fphy.2018.00143
412,2_202,I3-TMBDP-dimer,FALSE,CC2C(C4C6N(C(C)=C(I)C6C)[B](F)(F)N5C4=C(C)C(I)=C5C)C(C)N(C2=C3)[B](F)(F)N1C3=C(C)C(I)=C1C,518,,dichloromethane,,,,0.84,DPBF,,,,,,,10.3389/fphy.2018.00143
413,2_203,BD,FALSE,CC4=C2N(C(/C=C/C5=CC=CC=C5)=C4)[B-](F)(F)[N+]1=C(/C=C/C6=CC=CC=C6)C=C(C)C1=C2C3=CC=C(O)C=C3,629,637,DMSO,119400,,,0,DPBF,,,,,,,10.1039/C9PP00201D
414,2_204,Ru-BD,TRUE,CC4=C2N(C(/C=C/C5=CC=CC=C5)=C4)[B-](F)(F)[N+]1=C(/C=C/C6=CC=CC=C6)C=C(C)C1=C2C3=CC=C(OC7=CC=[N]([Ru]%17%21([N]%19=CC=CC=C%19C%20=CC=CC=[N]%20%21)%16[N](C=CC=C%22)=C%22C%18=[N]%17C=CC=C%18)C8=C7C=CC9=C8[N]%16=CC=C9OC(C=C%15)=CC=C%15C%11=C%10[N+]([B-](F)(F)N%12C%11=C(C)C=C%12/C=C/C%13=CC=CC=C%13)=C(/C=C/C%14=CC=CC=C%14)C=C%10C)C=C3.F[P-](F)(F)(F)(F)F.F[P-](F)(F)(F)(F)F,629,642,DMSO,197100,,,0.2,DPBF,,,,,,,10.1039/C9PP00201D
415,2_205,Ir-BD,TRUE,CC4=C2N(C(/C=C/C5=CC=CC=C5)=C4)[B-](F)(F)[N+]1=C(/C=C/C6=CC=CC=C6)C=C(C)C1=C2C3=CC=C(OC7=CC=[N]([Ir]%17%21([N]%19=CC=CC=C%19C%20=CC=CC=[N]%20%21)%16[N](C=CC=C%22)=C%22C%18=[N]%17C=CC=C%18)C8=C7C=CC9=C8[N]%16=CC=C9OC(C=C%15)=CC=C%15C%11=C%10[N+]([B-](F)(F)N%12C%11=C(C)C=C%12/C=C/C%13=CC=CC=C%13)=C(/C=C/C%14=CC=CC=C%14)C=C%10C)C=C3.F[P-](F)(F)(F)(F)F,629,642,DMSO,194900,,,0.06,DPBF,,,,,,,10.1039/C9PP00201D
416,2_206,BODIPY 2,FALSE,CC3=C(I)C(/C=C/C6=CN=CN6C)=[N+](C3=C4C5=CC=NC=C5)[B-](F)(F)N1C4=C(C)C(I)=C1/C=C/C2=CN=CN2C,666,705,MeOH,54954.08739,,,0.24,MeOD-d4,,,,,,,10.1002/cmdc.202000702
417,2_207,BODIPY 3,FALSE,CC3=C(I)C(/C=C/C6=CC=C(OC)C=C6)=[N+](C3=C4C5=CC=NC=C5)[B-](F)(F)N1C4=C(C)C(I)=C1/C=C/C2=CC=C(OC)C=C2,666,700,MeOH,63095.73445,,,0.4,MeOD-d4,,,,,,,10.1002/cmdc.202000702
418,2_208,BODIPY 4,FALSE,CC3=C(I)C(/C=C/C6=CC=C(N(C)C)C=C6)=[N+](C3=C4C5=CC=NC=C5)[B-](F)(F)N1C4=C(C)C(I)=C1/C=C/C2=CC=C(N(C)C)C=C2,745,821,MeOH,19952.62315,,,0,MeOD-d4,,,,,,,10.1002/cmdc.202000702
419,2_209,BODIPY 2-tPt3,TRUE,CC3=C(I)C(/C=C/C6=C[N]([Pt+]([NH3])(Cl)[NH3])=CN6C)=[N+](C3=C4C5=CC=[N]([Pt+]([NH3])(Cl)[NH3])C=C5)[B-](F)(F)N1C4=C(C)C(I)=C1/C=C/C2=C[N]([Pt+]([NH3])(Cl)[NH3])=CN2C,660,703,MeOH,41686.93835,,,0.07,MeOD-d4,,,,,,,10.1002/cmdc.202000702
420,2_210,BODIPY 3-tPt,TRUE,CC3=C(I)C(/C=C/C6=CC=C(OC)C=C6)=[N+](C3=C4C5=CC=[N]([Pt+]([NH3])(Cl)[NH3])C=C5)[B-](F)(F)N1C4=C(C)C(I)=C1/C=C/C2=CC=C(OC)C=C2,676,730,MeOH,69183.09709,,,0.26,MeOD-d4,,,,,,,10.1002/cmdc.202000702
421,2_211,BODIPY 4-tPt,TRUE,CC3=C(I)C(/C=C/C6=CC=C(N(C)C)C=C6)=[N+](C3=C4C5=CC=[N]([Pt+]([NH3])(Cl)[NH3])C=C5)[B-](F)(F)N1C4=C(C)C(I)=C1/C=C/C2=CC=C(N(C)C)C=C2,768,834,MeOH,56234.13252,,,0,MeOD-d4,,,,,,,10.1002/cmdc.202000702
422,2_212,BODIPY derivatives 1,FALSE,CC1=CC(C)=[N]3C1=CC2=C(C)C(C5=C4[N]([B](F)(F)N6C5=C(C)C=C6C)=[C@@](C)C=C4C)=C(C)N2[B](F)3F,514,527,CH2Cl2,,,,0.51,CH2Cl2,,,,,,,10.1016/j.ccr.2017.09.029
423,2_213,BODIPY derivatives 2,FALSE,CC1=C(C)C(C)=[N]3C1=CC2=C(C)C(CC)=C(C(C(CC)=C6C)=[N](C6=C5)[B](F)(F)N4C5=C(C)C(C)=C4C)N2[B](F)3F,565,648,CH2Cl2,,,,0.5,CH2Cl2,,,,,,,10.1016/j.ccr.2017.09.029
424,2_214,BODIPY derivatives 3,FALSE,CC1=C(C(C8=C(C)C=C(C)N8[B](F)9F)=C7[N]9=[C@](C)C=C7C)C(C)=[N]3C1=C(C%10=CC=C(C(C)(C)C)C=C%10)C2=C(C)C(C5=C4[N]([B](F)(F)N6C5=C(C)C=C6C)=[C@@](C)C=C4C)=C(C)N2[B](F)3F,507,,CH2Cl2,,,,0.53,CH2Cl2,,,,,,,10.1016/j.ccr.2017.09.029
425,2_215,BODIPY derivatives 4,FALSE,F[B]2(F)[N]1=C(C4=CC=C(C)O4)C(Br)=CC1=C(C6=C(C)C=C(C)C=C6C)C3=CC(Br)=C(C5=CC=C(C)O5)N23,667,689,CH2Cl2,,,,0.14,CH2Cl2,,,,,,,10.1016/j.ccr.2017.09.029
426,2_216,BODIPY derivatives 6,FALSE,F[B]2(F)[N]1=C(C#CC6=CC=CS6)C(Br)=CC1=C(C5=C(C)C=C(C)C=C5C)C3=CC(Br)=C(C#CC4=CC=CS4)N23,667,706,CH2Cl2,,,,0.19,CH2Cl2,,,,,,,10.1016/j.ccr.2017.09.029
427,2_217,BODIPY derivatives 9,FALSE,F[B]2(F)[N]1=C(C6=CC=CN6)C(Br)=CC1=C(C5=CC=CC=C5)C3=CC(Br)=C(C4=CC=CN4)N23,682,717,C6H6,,,,0.23,C6H6,,,,,,,10.1016/j.ccr.2017.09.029
428,2_218,BODIPY derivatives 10,FALSE,F[B]2(F)[N]1=C(C6=CC=CN6)C(Br)=C(Br)C1=C(C5=CC=CC=C5)C3=C(Br)C(Br)=C(C4=CC=CN4)N23,685,720,C6H6,,,,0.39,C6H6,,,,,,,10.1016/j.ccr.2017.09.029
429,2_219,BODIPY derivatives 11,FALSE,F[B]2(F)[N]1=C5C(SC(Br)=C5)=CC1=C(C(F)(F)F)C3=CC4=C(C=C(Br)S4)N23,635,650,CHCl3,,,,0.52,CHCl3,,,,,,,10.1016/j.ccr.2017.09.029
430,2_220,BODIPY derivatives 14,FALSE,F[B]2(F)[N]1=C6C(SC(C8=CC=C(Br)S8)=C6)=CC1=C(C4=CC=C(C(OC)=O)C=C4)C3=C(Br)C5=C(C=C(C7=CC=C(Br)S7)S5)N23,698,724,CH2Cl2,,,,0.63,CH2Cl2,,,,,,,10.1016/j.ccr.2017.09.029
431,2_221,BODIPY derivatives 17,FALSE,F[B]2(F)[N]1=C(/C=C/C6=CC=[N+](C)C=C6)C(Br)=C(C)C1=C(C4=CC=CC=C4)C3=C(C)C(Br)=C(/C=C/C5=CC=[N+](C)C=C5)N23.[I-].[I-],648,649,PBS Buffer,,,,0.1,PBS Buffer,,,,,,,10.1016/j.ccr.2017.09.029
432,2_222,BODIPY derivatives 18,FALSE,F[B]2(F)[N]1=C(/C=C/C6=CC=[N+](C)C=C6)C(I)=C(C)C1=C(C4=CC=CC=C4)C3=C(C)C(I)=C(/C=C/C5=CC=[N+](C)C=C5)N23.[I-].[I-],680,686,PBS Buffer,,,,0.22,PBS Buffer,,,,,,,10.1016/j.ccr.2017.09.029
433,2_223,BODIPY derivatives 19,FALSE,F[B]2(F)[N]1=C(C)C(I)=C(C)C1=C(CCCC(NCCCNC4=CC(C(F)(F)F)=C([N+]([O-])=O)C=C4)=O)C3=C(C)C(I)=C(C)N23,525,542,ACN,,,,0.78,ACN,,,,,,,10.1016/j.ccr.2017.09.029
434,2_224,BODIPY derivatives 20,FALSE,F[B]2(F)[N]1=C(/C=C/C5=CC=C(OC)C=C5)C(I)=C(C)C1=C([C@@]6=CC=[C@](CN7C(C=CC=C7)=O)C=C6)C3=C(C)C(I)=C(/C=C/C4=CC=C(OC)C=C4)N23,668,697,EtOH,,,,0.15,EtOH,,,,,,,10.1016/j.ccr.2017.09.029
435,2_225,BODIPY derivatives 23,FALSE,F[B]2(F)[N]1=C4C(SC(C7=CC=CC=C7)=C4)=CC1=C(C(F)(F)F)C3=CC5=C(C=C(C6=CC=CC=C6)S5)N23,688,700,CHCl3,,,,0.42,CHCl3,,,,,,,10.1016/j.ccr.2017.09.029
436,2_226,BODIPY derivatives42,TRUE,F[B]2(F)[N]1=C(C)C(I)=C(C)C1=C(C4=CC=C(CN5C(C(C=CC=C9)=[N]9[Pt]87OC(C=CC=C%10)=C%10O8)=[N]7C6=C5C=CC=C6)C=C4)C3=C(C)C(I)=C(C)N23,550,,DMF,,,,0.23,DMF,,,,,,,10.1016/j.ccr.2017.09.029
437,2_227,BODIPY derivatives 47,FALSE,F[B]2(F)[N]1=C(C)C=C(C)C1=C(C5=C4[N]([B](F)(F)N6C5=C(C)C=C6C)=C(C)C=C4C)C3=C(C)C=C(C)N23,515,606,CH2Cl2,,,,0.46,CH2Cl2,,,,,,,10.1016/j.ccr.2017.09.029
438,2_228,BODIPY derivatives 48,FALSE,F[B]2(F)[N]1=C(C)C(I)=C(C)C1=C(C)C3=C(C)C(I)=C(C)N23,528,553,CH2Cl2,,,,0.3,CH2Cl2,,,,,,,10.1016/j.ccr.2017.09.029
439,2_229,BODIPY derivatives 49,FALSE,F[B]2(F)[N]1=C(C)C(I)=C(C)C1=C(C4=CC=CC=C4)C3=C(C)C(I)=C(C)N23,529,548,CH2Cl2,,,,0.79,CH2Cl2,,,,,,,10.1016/j.ccr.2017.09.029
440,2_230,BODIPY Dyads  52,FALSE,F[B]2(F)[N]1=C(/C=C/C5=CC=C(C7=CC=C(C(N(C)CC%29%30=C%31%32)C%18%29=C%15C9=C%14C%12=C%11C%10=C9C%17=C%35C%10=C%37C%33=C%11C(C%44=C%46C%33=C%38C%47=C%49C%36=C%42C%34=C%35C%36=C%37%38)=C%12C%13=C(C%44=C%45C%46=C%47C%48=C%49%50)C%39=C%16C%13=C%14C%15=C%31C%16=C(C%40=C%39C%45=C%48C%40=C%41C%50=C%42%43)C%32=C%41C%43=C%30C%34=C%17%18)C=C7)C=C5)C=C(C)C1=C(C6=CC=CC=C6)C3=C(C)C=C(/C=C/C4=CC=C(C8=CC=C(C%58N(C)CC%28%59=C%25C%19=C%24C%22=C%21C%20=C%19C%27=C%53C%20=C%55C%51=C%21C(C%66=C%68C%51=C%56C%69=C%71C%54=C%64C%52=C%53C%54=C%55%56)=C%22C%23=C(C%66=C%67C%68=C%69C%70=C%71%72)C%61=C%26C%23=C%24C%25=C(C%57=C%58%59%60)C%26=C(C%62=C%61C%67=C%70C%62=C%63C%72=C%64%65)C%57=C%63C%65=C%60C%52=C%27%28)C=C8)C=C4)N23,645,662,CH2Cl2,,,,0.85,CH2Cl2,,,,,,,10.1016/j.ccr.2017.09.029
441,2_231,BODIPY Dyads  53,FALSE,F[B]2(F)[N]1=C(/C=C/C5=CC=CC=C5)C=C(C)C1=C(C6=CC=C(C7=CC=C(C%25N(C)CC%17%26=C%14C8=C%13C%11=C%10C9=C8C%16=C%20C9=C%22C%18=C%10C(C%33=C%35C%18=C%23C%36=C%38C%21=C%31C%19=C%20C%21=C%22%23)=C%11C%12=C(C%33=C%34C%35=C%36C%37=C%38%39)C%28=C%15C%12=C%13C%14=C(C%24=C%25%26%27)C%15=C(C%29=C%28C%34=C%37C%29=C%30C%39=C%31%32)C%24=C%30C%32=C%27C%19=C%16%17)C=C7)C=C6)C3=C(C)C=C(/C=C/C4=CC=CC=C4)N23,629,644,CH2Cl2,,,,0.82,CH2Cl2,,,,,,,10.1016/j.ccr.2017.09.029
442,2_232,BODIPY Dyads  54,FALSE,F[B]2(F)[N]1=C(/C=C/C5=CC=C(C7=CC=C(C(N(C)CC%29%30=C%31%32)C%18%29=C%15C9=C%14C%12=C%11C%10=C9C%17=C%35C%10=C%37C%33=C%11C(C%44=C%46C%33=C%38C%47=C%49C%36=C%42C%34=C%35C%36=C%37%38)=C%12C%13=C(C%44=C%45C%46=C%47C%48=C%49%50)C%39=C%16C%13=C%14C%15=C%31C%16=C(C%40=C%39C%45=C%48C%40=C%41C%50=C%42%43)C%32=C%41C%43=C%30C%34=C%17%18)C=C7)C=C5)C=C(C)C1=C(C6=CC=C(C%73=CC=C(C%91N(C)CC%83%92=C%80C%74=C%79C%77=C%76C%75=C%74C%82=C%86C%75=C%88C%84=C%76C(C%99=C%101C%84=C%89C%102=C%104C%87=C%97C%85=C%86C%87=C%88%89)=C%77C%78=C(C%99=C%100C%101=C%102C%103=C%104%105)C%94=C%81C%78=C%79C%80=C(C%90=C%91%92%93)C%81=C(C%95=C%94C%100=C%103C%95=C%96C%105=C%97%98)C%90=C%96C%98=C%93C%85=C%82%83)C=C%73)C=C6)C3=C(C)C=C(/C=C/C4=CC=C(C8=CC=C(C%58N(C)CC%28%59=C%25C%19=C%24C%22=C%21C%20=C%19C%27=C%53C%20=C%55C%51=C%21C(C%66=C%68C%51=C%56C%69=C%71C%54=C%64C%52=C%53C%54=C%55%56)=C%22C%23=C(C%66=C%67C%68=C%69C%70=C%71%72)C%61=C%26C%23=C%24C%25=C(C%57=C%58%59%60)C%26=C(C%62=C%61C%67=C%70C%62=C%63C%72=C%64%65)C%57=C%63C%65=C%60C%52=C%27%28)C=C8)C=C4)N23,657,667,CH2Cl2,,,,0.85,CH2Cl2,,,,,,,10.1016/j.ccr.2017.09.029
443,2_233,Porfimer sodium,FALSE,CC1=C(C(C)CO[*])C\4=N/C1=C\C2=C(C(O[*])C)C(C)=C(\C=C3/N=C(\C=C(C(CCC(O[Na])=O)=C5C)/N/C5=C4)C(CCC(O[Na])=O)=C3C)N2,630,,PBS ,3000,,,0.25,PBS ,,,,,,,10.1142/S1088424619300234 
444,2_234,Protoporphyrin IX,FALSE,CC1=C(C=C)C\4=N/C1=C\C2=C(C=C)C(C)=C(\C=C3/N=C(\C=C(C(CCC(O)=O)=C5C)/N/C5=C4)C(CCC(O)=O)=C3C)N2,635,,PBS ,5000,,,0.54,PBS ,,,,,,,10.1142/S1088424619300234 
445,2_235,Temoporfin,FALSE,[H]C1([H])C([H])([H])C(\C(C8=CC(O)=CC=C8)=C(C=C5)/N/C5=C(C9=CC(O)=CC=C9)\C(C=C6)=N/C6=C3C4=CC(O)=CC=C4)=N/C1=C(C7=CC(O)=CC=C7)\C2=CC=C\3N2,650,,EtOH,39000,,,0.3,EtOH,,,,,,,10.1142/S1088424619300234 
446,2_236,Verteporfin,FALSE,CC(C(\C=C(C(C=C)=C6C)/N/C6=C\C(C4=CC=C(C(OC)=O)C(C(OC)=O)C45C)=N/C5=C3)=N2)=C(CCC(O)=O)/C2=C/C1=C(CCC(OC)=O)C(C)=C\3N1,688,694,PBS+2% TX100,31200,,,0.79,PBS+2% TX100,,,,,,,10.1142/S1088424619300234 
447,2_237,ZnPc,TRUE,C1(C=CC=C%12)=C%12C9=[N@@]3C1=NC2=C%10C(C=CC=C%10)=C5N2[Zn@]43N8C(C%11=C(C=CC=C%11)C8=N9)=NC(C7=C6C=CC=C7)=[N@]4C6=N5,672,676,benzene,150000,0.06,,0.62,benzene,,,,,,,10.1142/S1088424619300234 
448,2_238,Rose Bengal,FALSE,IC1=C2C(C(C4=C(Cl)C(Cl)=C(Cl)C(Cl)=C4C(O[K])=O)=C(C=C3I)C(O2)=C(I)C3=O)=CC(I)=C1[K].[O],550,571,EtOH,90000,0.11,,0.68,EtOH,,,,,,,10.1142/S1088424619300234 
449,2_239,"2,6-dibromoazaBODIPY 1",FALSE,F[B]([N]3=C(C7=CC=C(OC)C=C7)C(Br)=C(C6=CC=CC=C6)C3=N4)(F)N1C4=C(C5=CC=CC=C5)C(Br)=C1C2=CC=C(OC)C=C2,679,714,CHCl3,75000,0.1,,0.74,Toluene,,,,,,,10.1142/S1088424619300234 
450,2_240,"2,6-dibromoazaBODIPY 2",FALSE,CC(C(I)=C3C)=C2N3[B](F)(F)[N]1=C(C)C(I)=C(C)C1=C2,534,548,MeOH,110000,0.02,,0.79,MeOH,,,,,,,10.1142/S1088424619300234 
451,2_241,"2,6-dibromoazaBODIPY 2a",FALSE,CC(C(I)=C4C)=C2N4[B](F)(F)[N]1=C(C)C(I)=C(C)C1=C2C3=CC=CC=C3,534,550,CH2Cl2,93000,0.05,,0.76,CH2Cl2,,,,,,,10.1142/S1088424619300234 
452,2_242,"2,6-dibromoazaBODIPY 2b",FALSE,CC(C(I)=C4C)=C2N4[B](F)(F)[N]1=C(C)C(I)=C(C)C1=C2C3=CC(OC)=CC(OC)=C3,535,549,CH2Cl2,78000,0.07,,0.4,CH2Cl2,,,,,,,10.1142/S1088424619300234 
453,2_243,"2,6-dibromoazaBODIPY 2c",FALSE,CC(C(I)=C4C)=C2N4[B](F)(F)[N]1=C(C)C(I)=C(C)C1=C2C3=CC=C(C(OC)=O)C=C3,537,554,CH2Cl2,66000,0.05,,0.27,CH2Cl2,,,,,,,10.1142/S1088424619300234 
454,2_244,"2,6-dibromoazaBODIPY 2d",FALSE,CC(C(I)=C4C)=C2N4[B](F)(F)[N]1=C(C)C(I)=C(C)C1=C2C3=CC=CS3,548,561,CH2Cl2,23000,0.04,,0.02,CH2Cl2,,,,,,,10.1142/S1088424619300234 
455,2_245,heptabromoBODIPYs 8,FALSE,CC(C=C4C)=C2N4[B](F)(F)[N]1=C(C)C(Br)=C(C)C1=C2C3=CC=CC=C3,521,543,toluene,,0.071,,0.39,toluene,,,,,,,10.1142/S1088424619300234 
456,2_246,heptabromoBODIPYs 9,FALSE,CC(C(Br)=C4C)=C2N4[B](F)(F)[N]1=C(C)C(Br)=C(C)C1=C2C3=CC=CC=C3,540,565,toluene,,0.053,,0.45,toluene,,,,,,,10.1142/S1088424619300234 
457,2_247,heptabromoBODIPYs 10,FALSE,BrC(C(Br)=C4)=[N](C4=C2C3=CC=CC=C3)[B](F)(F)N1C2=CC(Br)=C1Br,559,576,toluene,,0.065,,0.49,toluene,,,,,,,10.1142/S1088424619300234 
458,2_248,heptabromoBODIPYs 11,FALSE,BrC(C(Br)=C4Br)=[N](C4=C2C3=CC=CC=C3)[B](F)(F)N1C2=C(Br)C(Br)=C1Br,556,569,toluene,,0.014,,0.64,toluene,,,,,,,10.1142/S1088424619300234 
459,2_249,iodoBODIPYs 13,FALSE,F[B]([N]2=CC(I)=CC2=C3[Ar])(F)N1C3=CC(I)=C1,548.5,567.5,c-hexane,43000,0.012,,0.83,c-hexane,,,,,,,10.1142/S1088424619300234 
460,2_250,iodoBODIPYs 14,FALSE,F[B]([N]2=C(I)C(I)=CC2=C3[Ar])(F)N1C3=CC(I)=C1,563.5,577.5,c-hexane,48000,0.06,,0.86,c-hexane,,,,,,,10.1142/S1088424619300234 
461,2_251,iodoBODIPYs 15,FALSE,F[B]([N]2=C(I)C(I)=CC2=C3[Ar])(F)N1C3=CC(I)=C1I,581,593,c-hexane,116000,0.099,,0.87,c-hexane,,,,,,,10.1142/S1088424619300234 
462,2_252,diiodinated BODIPY-appended copper(II) complexes 16 ,TRUE,F[B]([N]2=C(I)C(I)=C(C)C2=C3C4=CC=C(N5C(C(C=CC=C%10)=[N]%10[Cu]897OC(C=CC=C%11)=C%11N8CC(C(CO)=CN=C%12C)=C%12O9)=[N]7C6=C5C=CC=C6)C=C4)(F)N1C3=C(C)C(I)=C1I,535,,20%DMSO/DPBS,13700,,,0.59,20%DMSO/DPBS,,,,,,,10.1142/S1088424619300234 
463,2_253,diiodinated BODIPY-appended copper(II) complexes 17 ,TRUE,F[B]([N]2=C(I)C(I)=C(C)C2=C3C4=CC=C([N]69[Cu]8([O]7=C(C)C=C(C)O8)([N](C=CC=C%10)=C%10C9)N57=CC=CC=C5C6)C=C4)(F)N1C3=C(C)C(I)=C1I,260,555,5%DMSO/PBS,56200,0.01,,0.59,5%DMSO/PBS,,,,,,,10.1142/S1088424619300234 
464,2_254,Mitochondria-targeted BODIPY-conjugated pyriplatin complex 18,TRUE,F[B]([N]2=C(I)C(I)=C(C)C2=C3C4=CC=C([N][Pt]([NH3])([NH3])Cl)C=C4)(F)N1C3=C(C)C(I)=C1I,555,,1%DMSO/DMEM,11000,,,0.65,1%DMSO/DMEM,,,,,,,10.1142/S1088424619300234 
465,2_255, haloazaBODIPYs 24,FALSE,F[B]([N]3=C(C5=CC=C(Br)C=C5)C(I)=C(C7=C(I)C(OC)=CC(OC)=C7)C3=N4)(F)N1C4=C(C6=CC(OC)=CC(OC)=C6I)C(I)=C1C2=CC=C(Br)C=C2,666,694,DMSO,69900,,,0.7,DMSO,,,,,,,10.1142/S1088424619300234 
466,2_256, haloazaBODIPYs 25,FALSE,F[B]([N]3=C(C5=CC=C(OCCOCCOCCOC)C=C5)C(I)=C(C7=CC=C(OCCOCCOCCOC)C=C7)C3=N4)(F)N1C4=C(C6=CC=C(OCCOCCOCCOC)C=C6)C(I)=C1C2=CC=C(OCCOCCOCCOC)C=C2,670,720,MeOH,81000,,,0.88,MeOH,,,,,,,10.1142/S1088424619300234 
467,2_257, haloazaBODIPYs 26,FALSE,F[B]([N]3=C(C5=CC=C(OCCCCCCN8CCOCC8)C=C5)C(Br)=C(C7=CC=C(OCCOCCOCCOC)C=C7)C3=N4)(F)N1C4=C(C6=CC=C(OCCOCCOCCOC)C=C6)C(Br)=C1C2=CC=C(OCCOCCOCCOC)C=C2,685,710,DMF,74100,,,0.9,DMF,,,,,,,10.1142/S1088424619300234 
468,2_258, haloazaBODIPYs 27,FALSE,F[B]([N]3=C(C5=CC=C(OC)C=C5)C(Br)=C(C7=CC(OC)=C(OC)C=C7)C3=N4)(F)N1C4=C(C6=CC=C(OC)C(OC)=C6)C(Br)=C1C2=CC=C(OC)C=C2,683,,DCM,,,,0.84,DCM,,,,,,,10.1142/S1088424619300234 
469,2_259, haloazaBODIPYs 28,FALSE,F[B]([N]3=C(C5=CC=C(Br)C=C5)C(I)=C(C7=CC=C(OC)C=C7)C3=N4)(F)N1C4=C(C6=CC=C(OC)C=C6)C(I)=C1C2=CC=C(Br)C=C2,658,714,PBS,,,,0.92,PBS,,,,,,,10.1142/S1088424619300234 
470,2_260,thiophene-fused bromoBODIPYs  30,FALSE,F[B]([N]3=C(C=C(C7=CC=C(Br)S7)S6)C6=C(Br)C3=C4C5=CC=C(C(OC)=O)C=C5)(F)N1C4=CC2=C1C=C(C8=CC=C(Br)S8)S2,698,724,CH2Cl2,230000,0.04,,0.63,CH2Cl2,,,,,,,10.1142/S1088424619300234 
471,2_261,PEG-SS-BDP,FALSE,F[B]([N]3=C(C(Br)=C(C7=CC=C(OC)C=C7)S6)C6=C(Br)C3=C4C5=CC=C(C(NCCSSCCNC(COCCOC)=O)=O)C=C5)(F)N1C4=CC2=C1C(Br)=C(C8=CC=C(OC)C=C8)S2,685,710,PBS,,,,0.57,PBS,,,,,,,10.1142/S1088424619300234 
472,2_262, haloazaBODIPYs 39a,FALSE,F[B]([N]4=C(C)C(I)=C(C)C4=C5C6=CC(OC)=CC(OC)=C6)(F)N1C5=C(C)C(I)=C1/C=C/C2=CNC3=C2C=CC=C3,636,676,DMSO,29000,,,0.72,DMSO,,,,,,,10.1142/S1088424619300234 
473,2_263, haloazaBODIPYs 39b,FALSE,F[B]([N]3=C(/C=C/C6=CC=C(C)C=C6)C(I)=C(C)C3=C4C5=CC(OC)=CC(OC)=C5)(F)N1C4=C(C)C(I)=C1/C=C/C2=CC=C(C)C=C2,666,695,DMSO,62000,,,0.65,DMSO,,,,,,,10.1142/S1088424619300234 
474,2_264, haloazaBODIPYs 40,FALSE,F[B]([N]3=C(/C=C/C6=CC=C(N(C%10=CC=CC=C%10)C7=CC=CC=C7)C=C6)C=CC3=C4C5=CC=C(Br)S5)(F)N1C4=CC=C1/C=C/C2=CC=C(N(C9=CC=CC=C9)C8=CC=CC=C8)C=C2,720,780,DCM,,,,0.352,DCM,,,,,,,10.1142/S1088424619300234 
475,2_265, haloazaBODIPYs 42,FALSE,F[B]([N]3=C(/C=C/C6=CC=C(OC)C=C6)C(I)=C(C)C3=C4C5=CC=C(OCC[N]7=N[N]C=C7COC(C=C%13)=CC=C%13C(C9=C(C)C=C(/C=C/C%11=CC=C(OC)C=C%11)N9[B](F)%10F)=C8[N]%10=C(/C=C/C%12=CC=C(OC)C=C%12)C=C8C)C=C5)(F)N1C4=C(C)C(I)=C1/C=C/C2=CC=C(OC)C=C2,667,692,toluene,0.07,,,0.62,toluene,,,,,,,10.1142/S1088424619300234 
476,2_266, haloazaBODIPYs 43,FALSE,F[B]([N]3=C(/C=C/C6=CC=C(OCC[o]CC[o]CC[o]C)C=C6)C(Br)=C(C)C3=C4C5=CC=C(OCC(NCCC7=CC=C(S(NC(NC8CCCCC8)=O)(=O)=O)C=C7)=O)C=C5)(F)N1C4=C(C)C(Br)=C1/C=C/C2=CC=C(OCC[o]CC[o]CC[o]C)C=C2,669,692,PBS,115000,0.32,,0.6,PBS,,,,,,,10.1142/S1088424619300234 