,index,name,metal_complex,SMILES,max_absorption_peak,max_emission_peak,solvant_spectrum,molar_extinction_coefficient,quantum_yield_fluorescence,max_phosphorescence_peak,quantum_yield_singlet_oxygen,solvant_quantum_yield,energy_level_exited_triplet_state,energy_level_HUMO,energy_level_LUMO,difference_HOMO_and_LUMO,method_for_HOMO/LUMO,all_absoption_peaks,reference_DOI
557,2_337,SBDPiR698,FALSE,F[B]2(F)[N]1=C5C(SC(C7=CC=C(F)C=C7)=C5)=CC1=C(C(F)(F)F)C3=CC4=C(C=C(C6=CC=C(F)C=C6)S4)N23,698,,CH2Cl2,146000,0.38,,0.2,,,-5.16,-3.5,-1.66,electrochemistry,,10.1002/asia.201500140
558,2_338,SBDPiR710,FALSE,F[B]2(F)[N]1=C5C(SC(C7=CC=C(C)C=C7)=C5)=CC1=C(C(F)(F)F)C3=CC4=C(C=C(C6=CC=C(C)C=C6)S4)N23,709,,CH2Cl2,287000,0.67,,,,,-5.07,-3.53,-1.54,electrochemistry,,10.1002/asia.201500140
559,2_339,SBDPiR731,FALSE,F[B]2(F)[N]1=C5C(SC(C7=CC=C(OC)C=C7)=C5)=CC1=C(C(F)(F)F)C3=CC4=C(C=C(C6=CC=C(OC)C=C6)S4)N23,731,,CH2Cl2,185000,0.38,,,,,-5.36,-3.93,-1.43,electrochemistry,,10.1002/asia.201500140
560,2_340,SBDPiR740,FALSE,F[B]2(F)[N]1=C5C(SC(C7=CC=C(O)C=C7)=C5)=CC1=C(C(F)(F)F)C3=CC4=C(C=C(C6=CC=C(O)C=C6)S4)N23,738,,CH2Cl2,160000,0.1,,,,,-5.4,-4.06,-1.34,electrochemistry,,10.1002/asia.201500140
561,2_341,BOP-Lso,FALSE,F[B]2(F)[N]1=C(/C=C/C5=CN(CCN8CCOCC8)C6=C5C=CC=C6)C(I)=C(C)C1=C(C4=NC(C(O)=CC=C7)=C7C=C4)C3=C(C)C(I)=C(C)N23,650,709,CH2Cl2,82000,0.032,,0.431,DCM,,,,,,,10.1016/j.dyepig.2020.108615
562,2_342,SBOP-Lyso,FALSE,F[B]2(F)[N]1=C(/C=C/C5=CN(CCN7CCOCC7)C6=C5C=CC=C6)C(I)=C(C)C1=C(C4=CC=C(I)S4)C3=C(C)C(I)=C(C)N23,660,705,dichloromethane,52000,0.03,,0.441,dichloromethane,,,,,,,10.1016/j.saa.2021.119512
563,2_343,BODIPY I,FALSE,F[B@@]([N]3=C(C([H])=C(C8=CC=C([H])S8)S6)C6=C([H])C3=C4C5=CC=C(C(OC)=O)C=C5)(F)N1C4=CC2=C1C=C(C7=CC=C([H])S7)S2,698,,DCM,,,,,,,-5.46,-3.42,-2.04,theoretical,,10.1016/j.dyepig.2016.02.021
564,2_344,BODIPY II,FALSE,F[B@@]([N]3=C(C([H])=C(C8=CC=C(Br)S8)S6)C6=C(Br)C3=C4C5=CC=C(C(OC)=O)C=C5)(F)N1C4=CC2=C1C=C(C7=CC=C(Br)S7)S2,684,,DCM,,,,,,,-5.27,-3.23,-2.04,theoretical,,10.1016/j.dyepig.2016.02.021
565,2_345,BODIPY dyads 8a,FALSE,CC3=CC(/C=C/C5=CC=C(N8C(C=CC=C%11)=C%11C(C)(C)C9=C8C=CC=C9)C=C5)=[N](C3=C4)B([F]F)N1C4=C(C)C=C1/C=C/C2=CC=C(N6C(C=CC=C%10)=C%10C(C)(C)C7=C6C=CC=C7)C=C2,643,654,chloroform,122300,0.47,,0.29,spectroscopic grade ethanol,,,,,,,10.1002/chem.202002549
566,2_346,BODIPY dyads 8b,FALSE,CC3=CC(/C=C/C6=CC=C(N9C(C=CC=C%12)=C%12C(C)(C)C%10=C9C=CC=C%10)C=C6)=[N](C3=C4C5=C(C)C=CC=C5C)B([F]F)N1C4=C(C)C=C1/C=C/C2=CC=C(N7C(C=CC=C%11)=C%11C(C)(C)C8=C7C=CC=C8)C=C2,633,645,chloroform,119900,0.63,,0.23,spectroscopic grade ethanol,,,,,,,10.1002/chem.202002549
567,2_347,BODIPY dyads 8c,FALSE,CC3=CC(/C=C/C6=CC=C(N9C(C=CC=C%12)=C%12C(C)(C)C%10=C9C=CC=C%10)C=C6)=[N](C3=C4C5=C(Cl)C=CC=C5Cl)B([F]F)N1C4=C(C)C=C1/C=C/C2=CC=C(N7C(C=CC=C%11)=C%11C(C)(C)C8=C7C=CC=C8)C=C2,648,664,chloroform,100100,0.38,,0.31,spectroscopic grade ethanol,,,,,,,10.1002/chem.202002549
568,2_348,BODIPY dyads 9a,FALSE,CC3=CC(/C=C/C5=CC=C(N8C(C=CC=C%11)=C%11C(C)(C)C9=C8C=CC=C9)S5)=[N](C3=C4)B([F]F)N1C4=C(C)C=C1/C=C/C2=CC=C(N6C(C=CC=C%10)=C%10C(C)(C)C7=C6C=CC=C7)S2,674,764,chloroform,107300,0.069,,0.03,spectroscopic grade ethanol,,,,,,,10.1002/chem.202002549
569,2_349,BODIPY dyads 9b,FALSE,CC3=CC(/C=C/C6=CC=C(N9C(C=CC=C%12)=C%12C(C)(C)C%10=C9C=CC=C%10)S6)=[N](C3=C4C5=C(C)C=CC=C5C)B([F]F)N1C4=C(C)C=C1/C=C/C2=CC=C(N7C(C=CC=C%11)=C%11C(C)(C)C8=C7C=CC=C8)S2,664,751,chloroform,98200,0.091,,0.05,spectroscopic grade ethanol,,,,,,,10.1002/chem.202002549
570,2_350,BODIPY dyads 9c,FALSE,CC3=CC(/C=C/C6=CC=C(N9C(C=CC=C%12)=C%12C(C)(C)C%10=C9C=CC=C%10)S6)=[N](C3=C4C5=C(Cl)C=CC=C5Cl)B([F]F)N1C4=C(C)C=C1/C=C/C2=CC=C(N7C(C=CC=C%11)=C%11C(C)(C)C8=C7C=CC=C8)S2,681,782,chloroform,98400,0.052,,0.06,spectroscopic grade ethanol,,,,,,,10.1002/chem.202002549
571,2_351,styryl-BODIPYs 1,FALSE,CC3=CC(/C=C/C5=CC=CC=C5)=[N](C3=C4)[B](F)(F)N1C4=C(C)C=C1/C=C/C2=CC=CC=C2,631,648,ethanol,,0.34,,,,,-5.71,-4.02,-1.69,electrochemistry,,10.1021/acs.jpca.8b02656
572,2_352,styryl-BODIPYs 2,FALSE,CC3=CC(/C=C/C5=CC=C(Br)C=C5)=[N](C3=C4)[B](F)(F)N1C4=C(C)C=C1/C=C/C2=CC=C(Br)C=C2,637,655,ethanol,,0.25,,,,,-5.79,-3.95,-1.84,electrochemistry,,10.1021/acs.jpca.8b02656
573,2_353,styryl-BODIPYs 3,FALSE,CC3=CC(/C=C/C5=CC=C(OC)C=C5)=[N](C3=C4)[B](F)(F)N1C4=C(C)C=C1/C=C/C2=CC=C(OC)C=C2,650,673,ethanol,,0.22,,,,,-5.57,-4.05,-1.52,electrochemistry,,10.1021/acs.jpca.8b02656
574,2_354,styryl-BODIPYs 4,FALSE,CC3=C(Br)C(/C=C/C5=CC=C(OC)C=C5)=[N](C3=C4)[B](F)(F)N1C4=C(C)C(Br)=C1/C=C/C2=CC=C(OC)C=C2,672,704,ethanol,,0.15,,,,,-5.73,-4.12,-1.61,electrochemistry,,10.1021/acs.jpca.8b02656
575,2_355,styryl-BODIPYs 5,FALSE,CC3=CC(/C=C/C5=CC=C(B6OC(C)(C)C(C)(C)O6)C=C5)=[N](C3=C4)[B](F)(F)N1C4=C(C)C=C1/C=C/C2=CC=C(B7OC(C)(C)C(C)(C)O7)C=C2,642,659,ethanol,,0.28,,,,,-5.77,-4.05,-1.72,electrochemistry,,10.1021/acs.jpca.8b02656
576,2_356,styryl-BODIPYs 6,FALSE,CC3=C(B6OC(C)(C)C(C)(C)O6)C(/C=C/C5=CC=C(OC)C=C5)=[N](C3=C4)[B](F)(F)N1C4=C(C)C(B7OC(C)(C)C(C)(C)O7)=C1/C=C/C2=CC=C(OC)C=C2,639,676,ethanol,,0.18,,,,,-5.7,-4,-1.7,electrochemistry,,10.1021/acs.jpca.8b02656
577,2_357,PTUBDP,FALSE,CC3=C(Br)C(/C=C/C6=CC=C(OCCOCCOCCOC)C=C6)=[N+](C3=C4C5=CC=C(OCCN7C=C(CNC(C8=CC=C(NC(N)=S)C=C8)=O)N=N7)C=C5)[B-](F)(F)N1C4=C(C)C(Br)=C1/C=C/C2=CC=C(OCCOCCOCCOC)C=C2,667,712,DMSO,54400,,,0.093,DMSO,,,,,,,10.1021/acsabm.0c01322
578,2_358,phthalocyanine-BODIPY conjugates 8,TRUE,CC(C=C4C)=[N+](C4=C2C3=CC=C(OCC#CC)C=C3)[B-](F)(F)N1C2=C(C)C=C1C.CC(C=C8C)=[N+](C8=C6C7=CC=C(OCC#CC)C=C7)[B-](F)(F)N5C6=C(C)C=C5C.CC(C=C%12C)=[N+](C%12=C%10C%11=CC=C(OCC#CC)C=C%11)[B-](F)(F)N9C%10=C(C)C=C9C.CC(C=C%16C)=[N+](C%16=C%14C%15=CC=C(OCC#CC)C=C%15)[B-](F)(F)N%13C%14=C(C)C=C%13C.C%17(C=CC=C%28)=C%28C%25=[N]%19C%17=NC%18=C%26C(C=CC=C%26)=C%21N%18[Zn]%20%19N%24C(C%27=C(C=CC=C%27)C%24=N%25)=NC(C%23=C%22C=CC=C%23)=[N]%20C%22=N%21,500,515,DMF,,,,0.56,DMF,,,,,,,10.1016/j.tetlet.2016.05.080
579,2_359,phthalocyanine-BODIPY conjugates 9,TRUE,CC2=CC(/C=C/C5=CC=C(N(CC)CC)C=C5)=[N+](C2=C3C4=CC=C(OCC#CC)C=C4)[B-](F)(F)N1C3=C(C)C=C1C.CC7=CC(/C=C/C%10=CC=C(N(CC)CC)C=C%10)=[N+](C7=C8C9=CC=C(OCC#CC)C=C9)[B-](F)(F)N6C8=C(C)C=C6C.CC%12=CC(/C=C/C%15=CC=C(N(CC)CC)C=C%15)=[N+](C%12=C%13C%14=CC=C(OCC#CC)C=C%14)[B-](F)(F)N%11C%13=C(C)C=C%11C.CC%17=CC(/C=C/C%20=CC=C(N(CC)CC)C=C%20)=[N+](C%17=C%18C%19=CC=C(OCC#CC)C=C%19)[B-](F)(F)N%16C%18=C(C)C=C%16C.C%21(C=CC=C%31)=C%31C%29=[N]%23C%21=NC%22=C%32C(C=CC=C%32)=C%25N%22[Zn]%24%23N%28C(C%30=C(C=CC=C%30)C%28=N%29)=NC(C%27=C%26C=CC=C%27)=[N]%24C%26=N%25,622,550,DMF,,,,0.21,DMF,,,,,,,10.1016/j.tetlet.2016.05.080
580,2_360,phthalocyanine-BODIPY conjugates 10,TRUE,CC3=CC(/C=C/C6=CC=C(N(CC)CC)C=C6)=[N+](C3=C4C5=CC=C(OCC#CC)C=C5)[B-](F)(F)N1C4=C(C)C=C1/C=C/C2=CC=C(N(CC)CC)C=C2.CC9=CC(/C=C/C%12=CC=C(N(CC)CC)C=C%12)=[N+](C9=C%10C%11=CC=C(OCC#CC)C=C%11)[B-](F)(F)N7C%10=C(C)C=C7/C=C/C8=CC=C(N(CC)CC)C=C8.CC%15=CC(/C=C/C%18=CC=C(N(CC)CC)C=C%18)=[N+](C%15=C%16C%17=CC=C(OCC#CC)C=C%17)[B-](F)(F)N%13C%16=C(C)C=C%13/C=C/C%14=CC=C(N(CC)CC)C=C%14.CC%21=CC(/C=C/C%24=CC=C(N(CC)CC)C=C%24)=[N+](C%21=C%22C%23=CC=C(OCC#CC)C=C%23)[B-](F)(F)N%19C%22=C(C)C=C%19/C=C/C%20=CC=C(N(CC)CC)C=C%20.C%25(C=CC=C%35)=C%35C%33=[N]%27C%25=NC%26=C%36C(C=CC=C%36)=C%29N%26[Zn]%28%27N%32C(C%34=C(C=CC=C%34)C%32=N%33)=NC(C%31=C%30C=CC=C%31)=[N]%28C%30=N%29,719,650,DMF,,,,0.07,DMF,,,,,,,10.1016/j.tetlet.2016.05.080
581,2_361,acacBDP-1,FALSE,O=C(C)C(C(C)=O)C2=C1[N]([B](F)(F)N3C2=CC([H])=C3C)=C(C)C([H])=C1,515,,aerated acetonitrile,9900,0.9,,0,aerated acetonitrile,,,,,,,10.1002/chem.201701347
582,2_362,acacBDP-2,FALSE,O=C(C)C(C(C)=O)C2=C1[N]([B](F)(F)N3C2=CC(C4=CC=CS4)=C3C)=C(C)C(C5=CC=CS5)=C1,600,,aerated acetonitrile,4100,0.09,,0,aerated acetonitrile,,,,,,,10.1002/chem.201701347
583,2_363,Ir-1,TRUE,FC(C=C(F)C=C56)=C5C1=CC=CC=[N]1[Ir]367(OC(C)=C(C9=C8[N]([B](OCCOCC)(OCCOCC)N%10C9=CC([H])=C%10C)=C(C)C([H])=C8)C(C)=[O]7)[N]2=CC=CC=C2C4=C3C=C(F)C=C4F,517,,aerated acetonitrile,44600,0.08,,0.86,aerated acetonitrile,,,,,,,10.1002/chem.201701347
584,2_364,Ir-2,TRUE,FC(C=C(F)C=C56)=C5C1=CC=CC=[N]1[Ir]367(OC(C)=C(C9=C8[N]([B](OCCOCC)(OCCOCC)N%10C9=CC(C%11=CC=CS%11)=C%10C)=C(C)C(C%12=CC=CS%12)=C8)C(C)=[O]7)[N]2=CC=CC=C2C4=C3C=C(F)C=C4F,597,,aerated acetonitrile,33800,0.22,,0.6,aerated acetonitrile,,,,,,,10.1002/chem.201701347
585,2_365,Ir-3,TRUE,FC(C=C(F)C=C56)=C5C1=CC=CC=[N]1[Ir]36([N]7=C(C%14=C%13C=CC=[N]%14%15)C(C8=C%13N=C(C=C%12)C(C=C%12C%11=C9=C(C)CC(C)=[N]9[B](F)(F)[N]%10=C(C)CC=C%10%11)=N8)=CC=C7)%15[N]2=CC(F)=CC(F)=C2C4=C3C=CC=C4,502,,aerated acetonitrile,26000,0.01,,0.5,aerated acetonitrile,,,,,,,10.1002/chem.201701347
586,2_366,BODIPY dyes 1a,FALSE,CC1=[N]3C(=C(C4=CC=C(O)C=C4)C2=C(C)C([H])C(C)=[N]2[B](F)3F)=C(C)C1[H],497,506,ACN,93000,0.59,,0.01,DPBF,,,,,,,10.1021/acs.jmedchem.9b01873
587,2_367,BODIPY dyes 2a,FALSE,CC1=[N]3C(=C(C4=CC(Br)=C(O)C(Br)=C4)C2=C(C)C([H])C(C)=[N]2[B](F)3F)=C(C)C1[H],509,524,ACN,96000,0.03,,0.57,DPBF,,,,,,,10.1021/acs.jmedchem.9b01873
588,2_368,BODIPY dyes 3a,FALSE,CC1=[N]3C(=C(C4=C(Br)C(O)=C(Br)C=C4Br)C2=C(C)C([H])C(C)=[N]2[B](F)3F)=C(C)C1[H],528,543,ACN,102000,0.02,,0.63,DPBF,,,,,,,10.1021/acs.jmedchem.9b01873
589,2_369,BODIPY dyes 1b,FALSE,CC1=[N]3C(=C(C4=CC=C(O)C=C4)C2=C(C)C(I)C(C)=[N]2[B](F)3F)=C(C)C1[H],501,511,ACN,92000,0.64,,0.03,DPBF,,,,,,,10.1021/acs.jmedchem.9b01873
590,2_370,BODIPY dyes 2b,FALSE,CC1=[N]3C(=C(C4=CC(Br)=C(O)C(Br)=C4)C2=C(C)C(I)C(C)=[N]2[B](F)3F)=C(C)C1[H],515,530,ACN,97000,0.03,,0.57,DPBF,,,,,,,10.1021/acs.jmedchem.9b01873
591,2_371,BODIPY dyes 3b,FALSE,CC1=[N]3C(=C(C4=C(Br)C(O)=C(Br)C=C4Br)C2=C(C)C(I)C(C)=[N]2[B](F)3F)=C(C)C1[H],534,550,ACN,99000,0.02,,0.59,DPBF,,,,,,,10.1021/acs.jmedchem.9b01873
592,2_372,BODIPY dyes 1c,FALSE,CC1=[N]3C(=C(C4=CC=C(O)C=C4)C2=C(C)C(I)C(C)=[N]2[B](F)3F)=C(C)C1I,510,518,ACN,91000,0.91,,0.03,DPBF,,,,,,,10.1021/acs.jmedchem.9b01873
593,2_373,BODIPY dyes 2c,FALSE,CC1=[N]3C(=C(C4=CC(Br)=C(O)C(Br)=C4)C2=C(C)C(I)C(C)=[N]2[B](F)3F)=C(C)C1I,525,539,ACN,94000,0.05,,0.84,DPBF,,,,,,,10.1021/acs.jmedchem.9b01873
594,2_374,BODIPY dyes 3c,FALSE,CC1=[N]3C(=C(C4=C(Br)C(O)=C(Br)C=C4Br)C2=C(C)C(I)C(C)=[N]2[B](F)3F)=C(C)C1I,546,562,ACN,96000,0.02,,0.9,DPBF,,,,,,,10.1021/acs.jmedchem.9b01873
595,2_375,NP-TMBDP,FALSE,CC1=[N]3C(=C([C@@]4=[C@@](C=CC=C5)[C@@]5=CC=C4)C2=C(C)CC(C)=[N]2B3[F]F)=C(C)C1,503,513,n-Hexane,,0.87,,0.05,n-Hexane,,,,,,,10.1016/j.saa.2017.08.005
596,2_375,NP-TMBDP,FALSE,CC1=[N]3C(=C([C@@]4=[C@@](C=CC=C5)[C@@]5=CC=C4)C2=C(C)CC(C)=[N]2B3[F]F)=C(C)C1,506,518,Toluene,,0.77,,0.043,Toluene,,,,,,,10.1016/j.saa.2017.08.005
597,2_375,NP-TMBDP,FALSE,CC1=[N]3C(=C([C@@]4=[C@@](C=CC=C5)[C@@]5=CC=C4)C2=C(C)CC(C)=[N]2B3[F]F)=C(C)C1,507,517,CCl4,,0.81,,0.048,CCl4,,,,,,,10.1016/j.saa.2017.08.005
598,2_375,NP-TMBDP,FALSE,CC1=[N]3C(=C([C@@]4=[C@@](C=CC=C5)[C@@]5=CC=C4)C2=C(C)CC(C)=[N]2B3[F]F)=C(C)C1,504,514,DCM,,0.91,,0.049,DCM,,,,,,,10.1016/j.saa.2017.08.005
599,2_375,NP-TMBDP,FALSE,CC1=[N]3C(=C([C@@]4=[C@@](C=CC=C5)[C@@]5=CC=C4)C2=C(C)CC(C)=[N]2B3[F]F)=C(C)C1,505,514,THF,,0.84,,0.13,THF,,,,,,,10.1016/j.saa.2017.08.005
600,2_375,NP-TMBDP,FALSE,CC1=[N]3C(=C([C@@]4=[C@@](C=CC=C5)[C@@]5=CC=C4)C2=C(C)CC(C)=[N]2B3[F]F)=C(C)C1,502,511,Ethanol,,0.9,,0.041,Ethanol,,,,,,,10.1016/j.saa.2017.08.005
601,2_375,NP-TMBDP,FALSE,CC1=[N]3C(=C([C@@]4=[C@@](C=CC=C5)[C@@]5=CC=C4)C2=C(C)CC(C)=[N]2B3[F]F)=C(C)C1,500,510,CH3CN,,0.83,,0.057,CH3CN,,,,,,,10.1016/j.saa.2017.08.005
602,2_376,MeO-NP-TMBDP,FALSE,CC1=[N]3C(=C([C@@]4=[C@@](C=CC=C5)[C@@]5=[C@](OC)C=C4)C2=C(C)CC(C)=[N]2B3[F]F)=C(C)C1,505,516,n-Hexane,,0.86,,0.069,n-Hexane,,,,,,,10.1016/j.saa.2017.08.005
603,2_376,MeO-NP-TMBDP,FALSE,CC1=[N]3C(=C([C@@]4=[C@@](C=CC=C5)[C@@]5=[C@](OC)C=C4)C2=C(C)CC(C)=[N]2B3[F]F)=C(C)C1,505,516,THF,,0.83,,0.15,THF,,,,,,,10.1016/j.saa.2017.08.005
604,2_376,MeO-NP-TMBDP,FALSE,CC1=[N]3C(=C([C@@]4=[C@@](C=CC=C5)[C@@]5=[C@](OC)C=C4)C2=C(C)CC(C)=[N]2B3[F]F)=C(C)C1,503,514,Ethanol,,0.82,,0.16,Ethanol,,,,,,,10.1016/j.saa.2017.08.005
605,2_376,MeO-NP-TMBDP,FALSE,CC1=[N]3C(=C([C@@]4=[C@@](C=CC=C5)[C@@]5=[C@](OC)C=C4)C2=C(C)CC(C)=[N]2B3[F]F)=C(C)C1,501,512,CH3CN,,0.57,,0.32,CH3CN,,,,,,,10.1016/j.saa.2017.08.005
606,2_377,TMBDP,FALSE,CC1=[N]3C(=CC2=C(C)CC(C)=[N]2B3[F]F)=C(C)C1,508,514,n-Hexane,,0.78,,0.03,n-Hexane,,,,,,,10.1016/j.saa.2017.08.005
607,2_377,TMBDP,FALSE,CC1=[N]3C(=CC2=C(C)CC(C)=[N]2B3[F]F)=C(C)C1,509,518,Toluene,,0.74,,0.061,Toluene,,,,,,,10.1016/j.saa.2017.08.005
608,2_377,TMBDP,FALSE,CC1=[N]3C(=CC2=C(C)CC(C)=[N]2B3[F]F)=C(C)C1,510,516,CCl4,,0.81,,0.1,CCl4,,,,,,,10.1016/j.saa.2017.08.005
609,2_377,TMBDP,FALSE,CC1=[N]3C(=CC2=C(C)CC(C)=[N]2B3[F]F)=C(C)C1,506,513,DCM,,0.74,,0.062,DCM,,,,,,,10.1016/j.saa.2017.08.005
610,2_377,TMBDP,FALSE,CC1=[N]3C(=CC2=C(C)CC(C)=[N]2B3[F]F)=C(C)C1,503,510,Ethanol,,0.8,,0.058,Ethanol,,,,,,,10.1016/j.saa.2017.08.005
611,2_377,TMBDP,FALSE,CC1=[N]3C(=CC2=C(C)CC(C)=[N]2B3[F]F)=C(C)C1,501,508,CH3CN,,0.81,,0.069,CH3CN,,,,,,,10.1016/j.saa.2017.08.005
612,2_378,NPc-TMBDP,FALSE,CC1=[N]3C(=C([C@@]4=[C@@](C(C(O)=O)=CC=C5)[C@@]5=CC=C4)C2=C(C)CC(C)=[N]2B3[F]F)=C(C)C1,513,531,n-Hexane,,0.92,,0.066,n-Hexane,,,,,,,10.1016/j.saa.2017.08.005
613,2_378,NPc-TMBDP,FALSE,CC1=[N]3C(=C([C@@]4=[C@@](C(C(O)=O)=CC=C5)[C@@]5=CC=C4)C2=C(C)CC(C)=[N]2B3[F]F)=C(C)C1,515,528,Toluene,,0.86,,0.038,Toluene,,,,,,,10.1016/j.saa.2017.08.005
614,2_378,NPc-TMBDP,FALSE,CC1=[N]3C(=C([C@@]4=[C@@](C(C(O)=O)=CC=C5)[C@@]5=CC=C4)C2=C(C)CC(C)=[N]2B3[F]F)=C(C)C1,514,532,DCM,,0.89,,0.068,DCM,,,,,,,10.1016/j.saa.2017.08.005
615,2_378,NPc-TMBDP,FALSE,CC1=[N]3C(=C([C@@]4=[C@@](C(C(O)=O)=CC=C5)[C@@]5=CC=C4)C2=C(C)CC(C)=[N]2B3[F]F)=C(C)C1,512,527,THF,,0.79,,0.066,THF,,,,,,,10.1016/j.saa.2017.08.005
616,2_378,NPc-TMBDP,FALSE,CC1=[N]3C(=C([C@@]4=[C@@](C(C(O)=O)=CC=C5)[C@@]5=CC=C4)C2=C(C)CC(C)=[N]2B3[F]F)=C(C)C1,511,528,EtOH,,0.81,,0.18,EtOH,,,,,,,10.1016/j.saa.2017.08.005
617,2_378,NPc-TMBDP,FALSE,CC1=[N]3C(=C([C@@]4=[C@@](C(C(O)=O)=CC=C5)[C@@]5=CC=C4)C2=C(C)CC(C)=[N]2B3[F]F)=C(C)C1,510,527,CH3CN,,0.57,,0.092,CH3CN,,,,,,,10.1016/j.saa.2017.08.005
618,2_379,NPc-BDP,FALSE,F[F]B2[N]1=CCC=C1=C([C@@]4=[C@@](C(C(O)=O)=CC=C5)[C@@]5=CC=C4)C3=CCC=[N]23,505,520,THF,,0.7,,0.15,THF,,,,,,,10.1016/j.saa.2017.08.005
619,2_379,NPc-BDP,FALSE,F[F]B2[N]1=CCC=C1=C([C@@]4=[C@@](C(C(O)=O)=CC=C5)[C@@]5=CC=C4)C3=CCC=[N]23,507,522,DCM,,0.3,,0.2,DCM,,,,,,,10.1016/j.saa.2017.08.005
620,2_379,NPc-BDP,FALSE,F[F]B2[N]1=CCC=C1=C([C@@]4=[C@@](C(C(O)=O)=CC=C5)[C@@]5=CC=C4)C3=CCC=[N]23,504,521,EtOH,,0.42,,0.3,EtOH,,,,,,,10.1016/j.saa.2017.08.005
621,2_379,NPc-BDP,FALSE,F[F]B2[N]1=CCC=C1=C([C@@]4=[C@@](C(C(O)=O)=CC=C5)[C@@]5=CC=C4)C3=CCC=[N]23,503,519,CH3CN,,0.45,,0.069,CH3CN,,,,,,,10.1016/j.saa.2017.08.005
622,2_380, [Zn(L1-3)(cur)]Cl 1,TRUE,[H][N]12CC3=[N](C=CC=C3)[Zn]5([O]=C(/C=C/C6=CC(OC)=C(O)C=C6)C=C(/C=C/C7=CC=C(O)C(OC)=C7)O5)1[N]4=C(C=CC=C4)C2,261,541,1% DMSO-DPBS buffer medium (pH = 7.4),32600,0.06,,0.08, DMSO,,,,,,"261, 426, 463 ",10.1016/j.ejmech.2021.1 13438
623,2_381, [Zn(L1-3)(cur)]Cl 2,TRUE,OC(C=C8)=C(OC)C=C8/C=C/C6=[O][Zn]13(OC(/C=C/C7=CC=C(O)C(OC)=C7)=C6)[N](CC4=[N]3C=CC=C4)(CC5=CC=C(C(C%10=C(C)C([H])=C(C)N%10[B](F)%11F)=C9[N]%11=C(C)C([H])=C9C)C=C5)CC2=[N]1C=CC=C2,501,506,1% DMSO-DPBS buffer medium (pH = 7.4),36700,0.54,,0.18, DMSO,,-7.17,-4.52,-2.65,,"262, 445, 501",10.1016/j.ejmech.2021.1 13438
624,2_382, [Zn(L1-3)(cur)]Cl 3,TRUE,OC(C=C8)=C(OC)C=C8/C=C/C6=[O][Zn]13(OC(/C=C/C7=CC=C(O)C(OC)=C7)=C6)[N](CC4=[N]3C=CC=C4)(CC5=CC=C(C(C%10=C(C)C(I)=C(C)N%10[B](F)%11F)=C9[N]%11=C(C)C(I)=C9C)C=C5)CC2=[N]1C=CC=C2,263,506,1% DMSO-DPBS buffer medium (pH= 7.4),39600,0.02,,0.73, DMSO,,-7.34,-4.55,-2.79,,"263, 437, 543 ",10.1016/j.ejmech.2021.1 13438
625,2_383,Pt (II) compounds 1a,TRUE,CC1=CC(C)=[N]([B](F)(F)N4C3=C(C)C(C5=CC=[N]([Pt]([NH3])([NH3])Cl)C=C5)=C4C)C1=C3C2=CC=CC=C2,511,526,DMSO,78300,0.55,,0.19,MeOH,,,,,,,10.1016/j.jinorgbio.2021.111394 
626,2_383,Pt (II) compounds 1a,TRUE,CC1=CC(C)=[N]([B](F)(F)N4C3=C(C)C(C5=CC=[N]([Pt]([NH3])([NH3])Cl)C=C5)=C4C)C1=C3C2=CC=CC=C2,506,519,PBS containing 5% DMSO (V/V) ,33300,0.27,,0.19,MeOH,,,,,,,10.1016/j.jinorgbio.2021.111394 
627,2_384,Pt (II) compounds 2a,TRUE,CC1=C(C6=CC=[N]([Pt]([NH3])([NH3])Cl)C=C6)C(C)=[N]([B](F)(F)N4C3=C(C)C(C5=CC=[N]([Pt]([NH3])([NH3])Cl)C=C5)=C4C)C1=C3C2=CC=CC=C2,525,541,DMSO,57100,0.32,,0.14,MeOH,,,,,,,10.1016/j.jinorgbio.2021.111394 
628,2_384,Pt (II) compounds 2a,TRUE,CC1=C(C6=CC=[N]([Pt]([NH3])([NH3])Cl)C=C6)C(C)=[N]([B](F)(F)N4C3=C(C)C(C5=CC=[N]([Pt]([NH3])([NH3])Cl)C=C5)=C4C)C1=C3C2=CC=CC=C2,519,533, PBS containing 5% DMSO (V/V) ,26300,0.14,,0.14,MeOH,,,,,,,10.1016/j.jinorgbio.2021.111394 
629,2_385,B-2,FALSE,CC1=C(I)C(C)=[N]([B](F)(F)N4C3=C(C)C(I)=C4C)C1=C3C2=CC=C(OCCN=[N+]=[N-])C=C2,537,553,toluene,88400,0.078,,0.74,CH2Cl2,,,,,,,10.1039/c5tc01222h
630,2_388,SB1a,FALSE,F[B](N4C3=CC=C4C5=CC=C[Se]5)(F)[N]1=C(C6=CC=C[Se]6)C=CC1=C3C2=C(C)C=C(C)C=C2C,631,657,CHCl3,67000,0.69,,0.05,CHCl3,,,,,,,10.1021/acs.joc.8b00782
631,2_389,SB1c,FALSE,F[B](N4C3=CC(C5=CC=C[Se]5)=C4)(F)[N]1=CC(C6=CC=C[Se]6)=CC1=C3C2=C(C)C=C(C)C=C2C,634,695,CHCl3,70000,0.063,,0.065,CHCl3,,,,,,,10.1021/acs.joc.8b00782
632,2_390,SB1d,FALSE,F[B](N4C3=CC(C7=CC=C[Se]7)=C4C5=CC=C[Se]5)(F)[N]1=C(C6=CC=C[Se]6)C(C8=CC=C[Se]8)=CC1=C3C2=C(C)C=C(C)C=C2C,653,704,CHCl3,53000,0.11,,0.27,CHCl3,,,,,,,10.1021/acs.joc.8b00782
633,2_391,SB1e,FALSE,F[B](N4C3=CC=C4C5=CC=C(I)[Se]5)(F)[N]1=C(C6=CC=C(I)[Se]6)C=CC1=C3C2=C(C)C=C(C)C=C2C,651,676,CHCl3,69000,0.51,,0.3,CHCl3,,,,,,,10.1021/acs.joc.8b00782
634,2_392,SB2a,FALSE,F[B](N4C3=CC=C4C5=CC=C(C8=CC=C(N8[B](F)9F)C(C%11=C(C)C=C(C)C=C%11C)=C7[N]9=C(C%10=CC=C[Se]%10)C=C7)[Se]5)(F)[N]1=C(C6=CC=C[Se]6)C=CC1=C3C2=C(C)C=C(C)C=C2C,785,842,CHCl3,88000,0.012,,0.29,CHCl3,,,,,,,10.1021/acs.joc.8b00782
635,2_393,TB1a,FALSE,F[B](N4C3=CC=C4C5=CC=CS5)(F)[N]1=C(C6=CC=CS6)C=CC1=C3C2=C(C)C=C(C)C=C2C,623,643,CHCl3,72000,0.78,,0.0042,CHCl3,,,,,,,10.1021/acs.joc.8b00782
636,2_394,TB1c,FALSE,F[B]2(F)N1C(C(C6=C(C)C=C(C)C=C6C)=C3[N]2=CC(C4=CC=CS4)=C3)=CC(C5=CC=CS5)=C1,630,684,CHCl3,36000,0.11,,0.019,CHCl3,,,,,,,10.1021/acs.joc.8b00782
637,2_395,TB1d,FALSE,F[B](N4C3=CC(C7=CC=CS7)=C4C5=CC=CS5)(F)[N]1=C(C6=CC=CS6)C(C8=CC=CS8)=CC1=C3C2=C(C)C=C(C)C=C2C,640,699,CHCl3,55000,0.21,,0.028,CHCl3,,,,,,,10.1021/acs.joc.8b00782
638,2_396,TB2a,FALSE,F[B](N4C3=CC=C4C5=CC=C(C8=CC=C(N8[B](F)9F)C(C%11=C(C)C=C(C)C=C%11C)=C7[N]9=C(C%10=CC=CS%10)C=C7)S5)(F)[N]1=C(C6=CC=CS6)C=CC1=C3C2=C(C)C=C(C)C=C2C,780,820,CHCl3,74000,0.08,,0.13,CHCl3,,,,,,,10.1021/acs.joc.8b00782
639,2_397,BOD-Au,TRUE,CC3=[N]2[B](F)(F)N1C(C(C5=CC=CC=C5)=C2C(C)=C3C#C[Au][P](C6=CC=CC=C6)(C7=CC=CC=C7)C4=CC=CC=C4)=C(C)C=C1C,550,583,CH2Cl2,38000,0.05,,0.84,CH2Cl2,,,,,,,10.1021/acs.orglett.7b00791
640,2_398,[Pt(L)(cat)] 2 ,TRUE,CC3=[N]2[B](F)(F)N1C(C(C4=CC=C(CN5C(C(C=CC=C9)=[N]9[Pt]87OC(C=CC=C%10)=C%10O8)N7C6=C5C=CC=C6)C=C4)=C2C(C)=C3I)=C(C)C(I)=C1C,550,,10% DMSO/DPBS,13700,,,0.23,air-saturated DMF,,,,,,"315, 394, 525, 550",10.1002/cmdc.201600320
641,2_399,L2,FALSE,CC3=[N]2[B](F)(F)N1C(C(C4=CC=C(CN5C(C7=NC=CC=C7)=NC6=C5C=CC=C6)C=C4)=C2C(C)=C3I)=C(C)C(I)=C1C,550,,10% DMSO/DPBS,,,,0.48,air-saturated DMF,,,,,,"315, 388, 550",10.1002/cmdc.201600320
642,2_400,PY-TMBDP,FALSE,CC6=C2N(C(C)=C6)[B-]([N+]1=C(C)C=C(C)C1=C2C3=CC=C7C5=C3C=CC4=CC=CC(C=C7)=C45)(F)F,503,513,n-hexane,,0.83,,0.13,n-hexane,,,,,,,10.1002/asia.201700794
643,2_400,PY-TMBDP,FALSE,CC6=C2N(C(C)=C6)[B-]([N+]1=C(C)C=C(C)C1=C2C3=CC=C7C5=C3C=CC4=CC=CC(C=C7)=C45)(F)F,506,518,toluene,,0.83,,0.086,toluene,,,,,,,10.1002/asia.201700794
644,2_400,PY-TMBDP,FALSE,CC6=C2N(C(C)=C6)[B-]([N+]1=C(C)C=C(C)C1=C2C3=CC=C7C5=C3C=CC4=CC=CC(C=C7)=C45)(F)F,503,514,THF,,0.94,,0.2,THF,,,,,,,10.1002/asia.201700794
645,2_400,PY-TMBDP,FALSE,CC6=C2N(C(C)=C6)[B-]([N+]1=C(C)C=C(C)C1=C2C3=CC=C7C5=C3C=CC4=CC=CC(C=C7)=C45)(F)F,502,512,ethanol,,0.7,,0.34,ethanol,,,,,,,10.1002/asia.201700794
646,2_400,PY-TMBDP,FALSE,CC6=C2N(C(C)=C6)[B-]([N+]1=C(C)C=C(C)C1=C2C3=CC=C7C5=C3C=CC4=CC=CC(C=C7)=C45)(F)F,500,509,CH3CN,,0.59,,0.34,CH3CN,,,,,,,10.1002/asia.201700794
647,2_401,AN-TMBDP,FALSE,CC5=C2N(C(C)=C5)[B-]([N+]1=C(C)C=C(C)C1=C2C3=C(C=CC=C6)C6=CC4=C3C=CC=C4)(F)F,502,515,THF,,0.36,,0.21,THF,,,,,,,10.1002/asia.201700794