,index,name,metal_complex,SMILES,max_absorption_peak,max_emission_peak,solvant_spectrum,molar_extinction_coefficient,quantum_yield_fluorescence,max_phosphorescence_peak,quantum_yield_singlet_oxygen,solvant_quantum_yield,energy_level_exited_triplet_state,energy_level_HUMO,energy_level_LUMO,difference_HOMO_and_LUMO,method_for_HOMO/LUMO,all_absoption_peaks,reference_DOI
1409,3_201,3e,FALSE,OC1=C([H])C(N(CC)CC)=C([H])C=C1/C(C3=CC=C(\C(C9=CC([H])=C(N(CC)CC)C([H])=C9O)=C4/N=C(\C(C8=CC([H])=C(N(CC)CC)C([H])=C8O)=C(C=C7)/N/C7=C5C6=CC([H])=C(N(CC)CC)C([H])=C6O)C=C4)N3)=C2C=CC\5=N/2,433,,DMF,86800,0.22,,0.52,DMF,,,,,,,
1410,3_202,3f,FALSE,OC1=C([H])C([H])=C(C)C=C1/C(C3=CC=C(\C(C9=CC(C)=C([H])C([H])=C9O)=C4/N=C(\C(C8=CC(C)=C([H])C([H])=C8O)=C(C=C7)/N/C7=C5C6=CC(C)=C([H])C([H])=C6O)C=C4)N3)=C2C=CC\5=N/2,430,,DMF,83700,0.2,,0.54,DMF,,,,,,,
1411,3_203,3g,FALSE,OC1=C([N+]([O-])=O)C([H])=C([N+]([O-])=O)C=C1/C(C3=CC=C(\C(C9=CC([N+]([O-])=O)=C([H])C([N+]([O-])=O)=C9O)=C4/N=C(\C(C8=CC([N+]([O-])=O)=C([H])C([N+]([O-])=O)=C8O)=C(C=C7)/N/C7=C5C6=CC([N+]([O-])=O)=C([H])C([N+]([O-])=O)=C6O)C=C4)N3)=C2C=CC\5=N/2,428,,DMF,68500,0.16,,0.62,DMF,,,,,,,
1412,3_204,3h,FALSE,OC1=C([H])C([H])=C(Cl)C=C1/C(C3=CC=C(\C(C9=CC(Cl)=C([H])C([H])=C9O)=C4/N=C(\C(C8=CC(Cl)=C([H])C([H])=C8O)=C(C=C7)/N/C7=C5C6=CC(Cl)=C([H])C([H])=C6O)C=C4)N3)=C2C=CC\5=N/2,424,,DMF,75200,0.18,,0.58,DMF,,,,,,,
1413,3_205,3i,FALSE,OC1=C([N+]([O-])=O)C([H])=C([H])C=C1/C(C3=CC=C(\C(C9=CC([H])=C([H])C([N+]([O-])=O)=C9O)=C4/N=C(\C(C8=CC([H])=C([H])C([N+]([O-])=O)=C8O)=C(C=C7)/N/C7=C5C6=CC([H])=C([H])C([N+]([O-])=O)=C6O)C=C4)N3)=C2C=CC\5=N/2,428,,DMF,76600,0.18,,0.56,DMF,,,,,,,
1414,3_206,TDPP,FALSE,NC1=NC(N)=NC(C(C=C8)=CC=C8\C(C3=CC=C(\C(C%12=CC=C(C%13=NC(N)=NC(N)=N%13)C=C%12)=C4/N=C(\C(C%10=CC=C(C%11=NC(N)=NC(N)=N%11)C=C%10)=C(C=C7)/N/C7=C5C6=CC=C(C9=NC(N)=NC(N)=N9)C=C6)C=C4)N3)=C2/C=CC\5=N2)=N1,421,,DMF,,,,,,,-0.56,-1.31,-1.87,spectrometry ,,10.1007s12274-019-2562-x+Bottom-up fabrication of graphitic carbon nitride nanosheets modified with porphyrin via covalent b
1415,3_207,CoTDPP,TRUE,NC1=NC(N)=NC(C(C=C%13)=CC=C%13C4=C2C=CC8=[N@@]2[Co@@]([N@@]5=C%11C=CC5=C6C7=CC=C(C%16=NC(N)=NC(N)=N%16)C=C7)(N%10C(C=CC%10=C%11C%12=CC=C(C%15=NC(N)=NC(N)=N%15)C=C%12)=C8C9=CC=C(C%14=NC(N)=NC(N)=N%14)C=C9)N3C6=CC=C34)=N1,431,,DMF,,,,,,,-0.52,-1.6,-2.12,electrochemistry,,10.1007s12274-020-2908-4+An efficient visible-light photocatalyst for CO(2)reduction fabricated by cobalt porphyrin and grap
1416,3_208,TMPyP,FALSE,C[N+](C=C9)=CC=C9\C(C(C=C5)=N/C5=C3C4=CC=[N+](C)C=C4)=C(N6)/C=C/C6=C(C7=CC=[N+](C)C=C7)/C2=N/C(C=C2)=C(C8=CC=[N+](C)C=C8)\C1=CC=C\3N1,415,525,"sodium hydrosulfite
solution",3.32×104 Lmol-1 cm-1,,,0.74,,,,,,,,10.1002_anie.202200799
1417,3_209,H-PyP,FALSE,C[N+](C=C9)=CC=C9\C(C(C=C5)=N/C5=C3C4=CC=[N+](C)C=C4)=C(N6)/C=C/C6=C(C7=CC=C(C#N)C=C7)/C2=N/C(C=C2)=C(C8=CC=[N+](C)C=C8)\C1=CC=C\3N1,420,680,water,,,,0.56,H2O,,,,,,,10.1002_chem.201405470
1418,3_210,Zn-PyP,TRUE,C[N+](C=C%12)=CC=C%12C3=C(N89)C=CC8=C(C%10=CC=C(C#N)C=C%10)C7=[N]2C(C=C7)=C(C%11=CC=[N+](C)C=C%11)C1=CC=C5N1[Zn]92[N]4=C3C=CC4=C5C6=CC=[N+](C)C=C6,435,680,water,,,,0.92,H2O,,,,,,,10.1002_chem.201405470
1419,3_211,Br-TPP,TRUE,BrCCCCOC(C=C9)=CC=C9\C(C2=CC=C(/C(C8=CC=CC=C8)=C3/C=CC4=N3)N2)=C1N=C(\C(C7=CC=CC=C7)=C(C=C6)/N/C6=C4/C5=CC=CC=C5)C=C/1,414,658,CH3CN,343400,0.033,,0.59,CH3CN,,,,,,,10.1039_c0cp00012d
1420,3_212,R-TPP,FALSE,OC(C=C%12)=CC=C%12C(C%11=CC=CC=C%11S(=O)([O-])=O)C(C=C%10)=CC=C%10OCCCCOC(C=C9)=CC=C9\C(C2=CC=C(/C(C8=CC=CC=C8)=C3/C=CC4=N3)N2)=C1N=C(\C(C7=CC=CC=C7)=C(C=C6)/N/C6=C4/C5=CC=CC=C5)C=C/1,414.5,657,CH3CN,365400,0.034,,0.59,CH3CN,,,,,,,10.1039_c0cp00012d
1421,3_213,NCP,FALSE,C2(\C(C8=CC=CC=C8)=C(C=C6)/N/C6=C4C5=CC=CC=C5)=N/C(C=C2)=C(C7=CC=CC=C7)\C1=CNC(/C(C9=CC=CC=C9)=C3/C=CC\4=N3)=C1,444,711,DMSO,165959,0.04,,0.23,DMSO,,,,,,,10.1039_d1nj00112d
1422,3_214,NCP-TB,FALSE,O=C(N%10CC)\C(C(N(CC)C%10=S)=O)=C1NC2C=C/1\C(C7=CC=CC=C7)=C(C=C4)/N/C4=C(C8=CC=CC=C8)\C(C=C6)=N/C6=C(C9=CC=CC=C9)\C5=CC/C(N5)=C2\C3=CC=CC=C3,444,,DMSO,275423,,,0.38,DMSO,,,,,,,10.1039_d1nj00112d
1423,3_215,3a,FALSE,FC1=C(SC%10=CC=CC=C%10)C(F)=C(F)C(/C(C3=CC=C(/C(C8=C(F)C(F)=C(SC%11=CC=CC=C%11)C(F)=C8F)=C4/C=CC5=N4)N3)=C2/N=C(\C(C9=C(F)C(F)=C(SC%13=CC=CC=C%13)C(F)=C9F)=C(C=C7)/N/C7=C5/C6=C(F)C(F)=C(SC%12=CC=CC=C%12)C(F)=C6F)C=C2)=C1F,417,648,CHCl3,100000,0.03,,0.67,DMF,,,,,,,10.3390_molecules23102588
1424,3_216,3b,FALSE,FC1=C(SC%10=CC=C(C)C=C%10)C(F)=C(F)C(/C(C3=CC=C(/C(C8=C(F)C(F)=C(SC%11=CC=C(C)C=C%11)C(F)=C8F)=C4/C=CC5=N4)N3)=C2/N=C(\C(C9=C(F)C(F)=C(SC%13=CC=C(C)C=C%13)C(F)=C9F)=C(C=C7)/N/C7=C5/C6=C(F)C(F)=C(SC%12=CC=C(C)C=C%12)C(F)=C6F)C=C2)=C1F,417,648,CHCl3,109648,0.01,,0.1,DMF,,,,,,,10.3390_molecules23102588
1425,3_217,3c,FALSE,FC1=C(SC%10=CC=C(Cl)C=C%10)C(F)=C(F)C(/C(C3=CC=C(/C(C8=C(F)C(F)=C(SC%11=CC=C(Cl)C=C%11)C(F)=C8F)=C4/C=CC5=N4)N3)=C2/N=C(\C(C9=C(F)C(F)=C(SC%13=CC=C(Cl)C=C%13)C(F)=C9F)=C(C=C7)/N/C7=C5/C6=C(F)C(F)=C(SC%12=CC=C(Cl)C=C%12)C(F)=C6F)C=C2)=C1F,418,652,CHCl3,104713,0.02,,0.11,DMF,,,,,,,10.3390_molecules23102588
1426,3_218,3d,FALSE,FC1=C(SC%10=C(N)C=CC=C%10)C(F)=C(F)C(/C(C3=CC=C(/C(C8=C(F)C(F)=C(SC%11=C(N)C=CC=C%11)C(F)=C8F)=C4/C=CC5=N4)N3)=C2/N=C(\C(C9=C(F)C(F)=C(SC%13=CC=CC=C%13N)C(F)=C9F)=C(C=C7)/N/C7=C5/C6=C(F)C(F)=C(SC%12=C(N)C=CC=C%12)C(F)=C6F)C=C2)=C1F,418,649,CHCl3,117490,0.01,,0.14,DMF,,,,,,,10.3390_molecules23102588
1427,3_219,P1,FALSE,O=C(O)C(C=C9)=CC=C9\C(C2=CC=C(/C(C7=CC=C(N(C)C)C=C7)=C3/C=CC4=N3)N2)=C1N=C(\C(C8=CC=C(N(C)C)C=C8)=C(C=C6)/N/C6=C4/C5=CC=C(C(O)=O)C=C5)C=C/1,422,680,DMF,,0.049,,,,,-4.95,-2.54,-2.38,theoretical,,10.1039_c2jm15420j
1428,3_220,P2,TRUE,O=C(O)C(C=C%12)=CC=C%12C(C2=CC=C5N2[Zn]43N8C(C=CC8=C9C%10=CC=C(N(C)C)C=C%10)=C(C%11=CC=C(C(O)=O)C=C%11)C(C=C7)=[N]4C7=C5C6=CC=C(N(C)C)C=C6)=C1[N]3=C9C=C1,432,630,DMF,,0.084,,,,,-4.9,-2.38,-2.52,theoretical,,10.1039_c2jm15420j
1429,3_221,JY24,TRUE,CC(C)(C)C1=CC(C2=C(C=C3)N4C3=C(C5=CC=C(C(O)=O)C=C5)C(C=C6)=[N]7C6=C(C8=CC(C(C)(C)C)=CC(C(C)(C)C)=C8)C9=CC=C%10N9[Zn]74[N]%11=C2C=CC%11=C%10C%12=CC=C(N(CC(CCCC)CC)C(C=CC=C%13)=C%13S%14)C%14=C%12)=CC(C(C)(C)C)=C1,422,597,DCM(CH2Cl2),404000,,,,,,-7.01,-4.81,-2.08,electrochemistry,"422, 550, 592",10.1039/c5ra26754d
1430,3_222,JY25,TRUE,CC(C)(C)C1=CC(C2=C(C=C3)N4C3=C(C5=CC=C(/C=C(C#N)/C(O)=O)C=C5)C(C=C6)=[N]7C6=C(C8=CC(C(C)(C)C)=CC(C(C)(C)C)=C8)C9=CC=C%10N9[Zn]74[N]%11=C2C=CC%11=C%10C%12=CC=C(N(CC(CCCC)CC)C(C=CC=C%13)=C%13S%14)C%14=C%12)=CC(C(C)(C)C)=C1,424,602,DCM(CH2Cl2),246000,,,,,,-7.03,-4.82,-2.06,electrochemistry,"424, 550, 593 ",10.1039/c5ra26754d
1431,3_223,JY26,TRUE,CC(C)(C)C1=CC(C2=C(C=C3)N4C3=C(C5=CC=C(/C=C(C(O)=O)\C#N)S5)C(C=C6)=[N]7C6=C(C8=CC(C(C)(C)C)=CC(C(C)(C)C)=C8)C9=CC=C%10N9[Zn]74[N]%11=C2C=CC%11=C%10C%12=CC=C(N(CC(CCCC)CC)C(C=CC=C%13)=C%13S%14)C%14=C%12)=CC(C(C)(C)C)=C1,425,612,DCM(CH2Cl2),266000,,,,,,-7.06,-4.84,-2.03,electrochemistry,"425, 554, 602",10.1039/c5ra26754d
1432,3_224,JY27,TRUE,CC(C)(C)C1=CC(C2=C(C=C3)N4C3=C(C#CC5=CC=C(C(O)=O)C=C5)C(C=C6)=[N]7C6=C(C8=CC(C(C)(C)C)=CC(C(C)(C)C)=C8)C9=CC=C%10N9[Zn]74[N]%11=C2C=CC%11=C%10C%12=CC=C(N(CC(CCCC)CC)C(C=CC=C%13)=C%13S%14)C%14=C%12)=CC(C(C)(C)C)=C1,442,624,DCM(CH2Cl2),301000,,,,,,-7.06,-4.85,-1.98,electrochemistry,"442, 570, 617",10.1039/c5ra26754d
1433,3_225,Pt-1,TRUE,C[N+](C)(C)CCCCCCC1(CCCCCCC[N+](C)(C)C)C2=C(C3=C1C=CC=C3)C=CC(C(C=C4)=CC=C4C5=C(N67)C=CC6=C(C8=CC=C(C9=CC%10=C(C%11=C(C%10(CCCCCC[N+](C)(C)C)CCCCCC[N+](C)(C)C)C=CC=C%11)C=C9)C=C8)C%12=[N]%13C(C=C%12)=C(C%14=CC=C(C%15=CC%16=C(C%17=C(C%16(CCCCCC[N+](C)(C)C)CCCCCC[N+](C)(C)C)C=CC=C%17)C=C%15)C=C%14)C%18=CC=C%19N%18[Pt]7%13[N]%20=C5C=CC%20=C%19C%21=CC=C(C%22=CC(C%23(CCCCCC[N+](C)(C)C)CCCCCC[N+](C)(C)C)=C(C%24=C%23C=CC=C%24)C=C%22)C=C%21)=C2.[Br-].[Br-].[Br-].[Br-].[Br-].[Br-].[Br-].[Br-],405,678,aqueous solution,,0.017,,0.8,aqueous solution,~1.86,,,,,"405, 515",10.1021/acsami.8b05944 
1434,3_226,Pt-2,TRUE,C[N+](C)(C)CCCCCCC1(CCCCCCC[N+](C)(C)C)C2=C(C3=C1C=C(C4=CC(C5(CCCCCCC[N+](C)(C)C)CCCCCC[N+](C)(C)C)=C(C6=C5C=CC=C6)C=C4)C=C3)C=CC(C(C=C7)=CC=C7C8=C(N9%10)C=CC9=C(C%11=CC=C(C%12=CC%13=C(C%14=C(C%13(CCCCCC[N+](C)(C)C)CCCCCC[N+](C)(C)C)C=C(C%15=CC(C%16(CCCCCCC[N+](C)(C)C)CCCCCC[N+](C)(C)C)=C(C%17=C%16C=CC=C%17)C=C%15)C=C%14)C=C%12)C=C%11)C%18=[N]%19C(C=C%18)=C(C%20=CC=C(C%21=CC%22=C(C%23=C(C%22(CCCCCC[N+](C)(C)C)CCCCCC[N+](C)(C)C)C=C(C%24=CC(C%25(CCCCCCC[N+](C)(C)C)CCCCCC[N](C)(C)C)=C(C%26=C%25C=CC=C%26)C=C%24)C=C%23)C=C%21)C=C%20)C%27=CC=C%28N%27[Pt]%10%19[N]%29=C8C=CC%29=C%28C%30=CC=C(C%31=CC(C%32(CCCCCC[N+](C)(C)C)CCCCCC[N+](C)(C)C)=C(C%33=C%32C=C(C%34=CC(C%35(CCCCCCC[N+](C)(C)C)CCCCCC[N](C)(C)C)=C(C%36=C%35C=CC=C%36)C=C%34)C=C%33)C=C%31)C=C%30)=C2.[Br-].[Br-].[Br-].[Br-].[Br-].[Br-].[Br-].[Br-].[Br-].[Br-].[Br-].[Br-].[Br].[Br-].[Br].[Br-],405,678,aqueous solution,,0.023,,0.86,aqueous solution,~1.86,,,,,"405, 515",10.1021/acsami.8b05944 
1435,3_227,Pt-3,TRUE,C[N+](C)(C)CCCCCCC1(CCCCCCC[N+](C)(C)C)C2=C(C3=C1C=C(C4=CC(C5(CCCCCCC[N+](C)(C)C)CCCCCC[N+](C)(C)C)=C(C6=C5C=C(C(C=C7)=CC8=C7C9=C(C8(CCCCCCC[N+](C)(C)C)CCCCCC[N+](C)(C)C)C=CC=C9)C=C6)C=C4)C=C3)C=CC(C(C=C%10)=CC=C%10C%11=C(N%12%13)C=CC%12=C(C%14=CC=C(C%15=CC%16=C(C%17=C(C%16(CCCCCC[N+](C)(C)C)CCCCCC[N+](C)(C)C)C=C(C%18=CC(C%19(CCCCCCC[N+](C)(C)C)CCCCCC[N+](C)(C)C)=C(C%20=C%19C=C(C(C=C%21)=CC%22=C%21C%23=C(C%22(CCCCCCC[N+](C)(C)C)CCCCCC[N+](C)(C)C)C=CC=C%23)C=C%20)C=C%18)C=C%17)C=C%15)C=C%14)C%24=[N]%25C(C=C%24)=C(C%26=CC=C(C%27=CC%28=C(C%29=C(C%28(CCCCCC[N+](C)(C)C)CCCCCC[N+](C)(C)C)C=C(C%30=CC(C%31(CCCCCCC[N+](C)(C)C)CCCCCC[N+](C)(C)C)=C(C%32=C%31C=C(C(C=C%33)=CC%34=C%33C%35=C(C%34(CCCCCCC[N+](C)(C)C)CCCCCC[N+](C)(C)C)C=CC=C%35)C=C%32)C=C%30)C=C%29)C=C%27)C=C%26)C%36=CC=C%37N%36[Pt]%13%25[N]%38=C%11C=CC%38=C%37C%39=CC=C(C%40=CC(C%41(CCCCCC[N+](C)(C)C)CCCCCC[N+](C)(C)C)=C(C%42=C%41C=C(C%43=CC(C%44(CCCCCCC[N+](C)(C)C)CCCCCC[N+](C)(C)C)=C(C%45=C%44C=C(C(C=C%46)=CC%47=C%46C%48=C(C%47(CCCCCCC[N+](C)(C)C)CCCCCC[N+](C)(C)C)C=CC=C%48)C=C%45)C=C%43)C=C%42)C=C%40)C=C%39)=C2.[Br-].[Br-].[Br-].[Br-].[Br-].[Br-].[Br-].[Br-].[Br-].[Br-].[Br-].[Br-].[Br-].[Br-].[Br-].[Br-].[Br-].[Br-].[Br-].[Br-].[Br-].[Br-].[Br-].[Br-],405,678,aqueous solution,,0.032,,0.92,aqueous solution,~1.86,,,,,"405, 515",10.1021/acsami.8b05944 
1436,3_228,H2N2CP,FALSE,FC(C(F)=C(F)C(F)=C1F)=C1/C(C(C=N/2)=CC2=C3\C4=C(F)C(F)=C(F)C(F)=C4F)=C(N/5)\C=CC5=C(C6=C(F)C(F)=C(F)C(F)=C6F)\C7=N/C(C=C7)=C(C8=C(F)C(F)=C(F)C(F)=C8F)\C9=CNC3=C9,427,,acetonitrile solution,50118.72336,,,0.19, acetonitrile ,,,,,,"345, 427, 580, 623, 668, 722 ",10.1016/j.jphotochem.2004.01.010
1437,3_229,AgHN2CP,TRUE,CC(C(F)=C(F)C(F)=C1F)=C1C2=C(N34)C=CC3=C(C5=C(F)C(F)=C(F)C(F)=C5F)C6=[N]7C(C=C6)=C(C8=C(F)C(F)=C(F)C(F)=C8F)C9=CNC%10=C9[Ag@@]47C%11=C2C=NC%11=C%10C%12=C(F)C(F)=C(F)C(F)=C%12F,437,,acetonitrile solution,50118.72336,,,0.81, acetonitrile ,,,,,,"364, 418, 437, 475, 511, 570, 613, 665 ",10.1016/j.jphotochem.2004.01.010
1438,3_230,CuHN2CP,TRUE,CC(C(F)=C(F)C(F)=C1F)=C1C2=C(N34)C=CC3=C(C5=C(F)C(F)=C(F)C(F)=C5F)C6=[N]7C(C=C6)=C(C8=C(F)C(F)=C(F)C(F)=C8F)C9=CNC%10=C9[Cu@@]47C%11=C2C=NC%11=C%10C%12=C(F)C(F)=C(F)C(F)=C%12F,437,,acetonitrile solution,63095.73445,,,0.48, acetonitrile ,,,,,,"367, 415, 437, 475, 569, 606, 670 ",10.1016/j.jphotochem.2004.01.010
1439,3_231, 5-(pyridyl)-10-15-20-tris(4-bromophenyl) porphyrin ,FALSE,BrC(C=C1)=CC=C1/C(C2=N/C(C=C2)=C3/C4=CC=NC=C4)=C(C=C/5)/NC5=C(C6=CC=C(Br)C=C6)/C(C=C/7)=NC7=C(C8=CC=C(Br)C=C8)/C9=CC=C3N9,417,,DMF,,0.025,,0.45,DMF,,,,,,,10.1142/S1088424622500316
1440,3_232,indium 5-(pyridyl)-10-15-20-tris(4-bromophenyl) porphyrin,TRUE,BrC(C=C1)=CC=C1C2=C(N34)C=CC3=C(C5=CC=C(Br)C=C5)C6=[N]7C(C=C6)=C(C8=CC=NC=C8)C9=CC=C%10N9[In]74(Cl)[N]%11=C2C=CC%11=C%10C%12=CC=C(Br)C=C%12,431,,DMF,,0.01,,0.69,DMF,,,,,,,10.1142/S1088424622500316
1441,3_233, Quaternization of indium 5-(pyridyl)-10-15-20-tris(4-bromophenyl) porphyrin,TRUE,BrC(C=C1)=CC=C1C2=C(N34)C=CC3=C(C5=CC=C(Br)C=C5)C6=[N]7C(C=C6)=C(C8=CC=[N+](C)C=C8)C9=CC=C%10N9[In]74(Cl)[N]%11=C2C=CC%11=C%10C%12=CC=C(Br)C=C%12.CO[S-](=O)=O,437,,DMF,,0.01,,0.72,DMF,,,,,,,10.1142/S1088424622500316
1442,3_234,"5-[4-(trimethylammonium)phenyl]-10,15,20-tris(2,4,6-trimeth-oxyphenyl)porphyrin iodide 1",FALSE,COC1=CC(OC)=CC(OC)=C1/C(C2=N/C(C=C2)=C3/C4=C(OC)C=C(OC)C=C4OC)=C(C=C/5)/NC5=C(C6=C(OC)C=C(OC)C=C6OC)/C(C=C/7)=NC7=C(C8=CC=C([N+](C)(C)C)C=C8)/C9=CC=C3N9.[I-],425,720,DMF,,0.1,,0.66,DMF,,,,,,,10.1016/j.femsim.2004.12.007
1443,3_235,"5,10-di(4-methylphenyl)-15,20-di(4-trimethylammoniumphenyl)porphyrin iodide 2",FALSE,CC(C=C1)=CC=C1/C(C2=N/C(C=C2)=C3/C4=CC=C(C)C=C4)=C(C=C/5)/NC5=C(C6=CC=C([N+](C)(C)C)C=C6)/C(C=C/7)=NC7=C(C8=CC=C([N+](C)(C)C)C=C8)/C9=CC=C3N9.[I-].[I-],420,670,DMF,,0.06,,0.36,DMF,,,,,,,10.1016/j.femsim.2004.12.007
1444,3_236," 5-(4-trifluor-ophenyl)-10,15,20-tris(4-trimethylammoniumphenyl)porphyrin iodide 3",FALSE,C[N+](C)(C)C(C=C1)=CC=C1/C(C2=CC=C(/C(C3=CC=C(C(F)(F)F)C=C3)=C4N=C(/C(C5=CC=C([N+](C)(C)C)C=C5)=C(C=C/6)\NC6=C7\C8=CC=C([N+](C)(C)C)C=C8)C=C\4)N2)=C9C=CC7=N\9.[I-].[I-].[I-],420,650,DMF,,0.08,,0.42,DMF,,,,,,,10.1016/j.femsim.2004.12.007
1445,3_237,RuTPyP,TRUE,Cl[Ru]12([N]3=C(C4=[N]2C=CC=C4)C=CC=C3)([N+]5=CC=C(/C(C6=CC=C(/C(C(C=C7)=CC=[N+]7[Ru]89([N]%10=C(C%11=[N]9C=CC=C%11)C=CC=C%10)(Cl)[N]%12=CC=CC=C%12C%13=CC=CC=[N]%138)=C%14C=CC%15=N/%14)N6)=C%16N=C(/C(C(C=C%17)=CC=[N+]%17[Ru]%18%19([N]%20=C(C%21=[N]%19C=CC=C%21)C=CC=C%20)(Cl)[N]%22=CC=CC=C%22C%23=CC=CC=[N]%23%18)=C(C=C/%24)\NC%24=C%15\C(C=C%25)=CC=[N+]%25[Ru]%26%27([N]%28=C(C%29=[N]%27C=CC=C%29)C=CC=C%28)(Cl)[N]%30=CC=CC=C%30C%31=CC=CC=[N]%31%26)C=C/%16)C=C5)[N]%32=CC=CC=C%32C%33=CC=CC=[N]%331,418,652,DMSO,179000,0.0003,,0.02,DMSO,,,,,,"297, 418, 504 ",10.1016/j.jphotochem.2020.112375
1446,3_238,ZnRuTPyP,TRUE,Cl[Ru]12([N]3=C(C4=[N]2C=CC=C4)C=CC=C3)([N+]5=CC=C(C(C6=CC=C7N6[Zn]89N%10C(C=CC%10=C%11C(C=C%12)=CC=[N+]%12[Ru]%13%14([N]%15=C(C%16=[N]%14C=CC=C%16)C=CC=C%15)(Cl)[N]%17=CC=CC=C%17C%18=CC=CC=[N]%18%13)=C(C(C=C%19)=CC=[N+]%19[Ru]%20%21([N]%22=C(C%23=[N]%21C=CC=C%23)C=CC=C%22)(Cl)[N]%24=CC=CC=C%24C%25=CC=CC=[N]%25%20)C(C=C%26)=[N]8C%26=C7C(C=C%27)=CC=[N+]%27[Ru]%28%29([N]%30=C(C%31=[N]%29C=CC=C%31)C=CC=C%30)(Cl)[N]%32=CC=CC=C%32C%33=CC=CC=[N]%33%28)=C%34[N]9=C%11C=C%34)C=C5)[N]%35=CC=CC=C%35C%36=CC=CC=[N]%361,430,613,DMSO,871000,0.0008,,0.36,DMSO,,,,,,"296, 430, 563 ",10.1016/j.jphotochem.2020.112375
1447,3_239,T-Co,FALSE,FC(C(F)=C(F)C(F)=C1F)=C1/C(C2=CC=C3N2)=C(C=C/4)/NC4=C(C5=CC=C(C6=CC(C(CCCC)(CCCC)C7=C8C9=C(C(C=CC(C=O)=C%10)=C%10C9(CCCC)CCCC)C%11=C7C(C=CC(Br)=C%12)=C%12C%11(CCCC)CCCC)=C8C=C6)C=C5)/C%13=CC=C(/C(C%14=C(F)C(F)=C(F)C(F)=C%14F)=C%15N=C3C=C\%15)N%13,423,660,toluene,139000,,,0.578,Toluene,,,,,,"423, 567, 616, 641 ",10.1016/j.dyepig.2021.109754
1448,3_240,T-P-Co,TRUE,FC(C(F)=C(F)C(F)=C1F)=C1/C(C2=CC=C3N2)=C(C=C/4)/NC4=C(C5=CC=C(C6=CC(C(CCCC)(CCCC)C7=C8C9=C(C(C=CC(C=O)=C%10)=C%10C9(CCCC)CCCC)C%11=C7C(C=CC(/C(C%12=N/C(C=C%12)=C%13/C%14=CC(C(C)(C)C)=CC(C(C)(C)C)=C%14)=C(C=C/%15)/N%16C%15=C(C%17=CC(C(C)(C)C)=CC(C(C)(C)C)=C%17)/C(C=C/%18)=NC%18=C(C%19=CC=CC=C%19)/C%20=CC=C%13N%20[Zn]%16)=C%21)=C%21C%11(CCCC)CCCC)=C8C=C6)C=C5)/C%22=CC=C(/C(C%23=C(F)C(F)=C(F)C(F)=C%23F)=C%24N=C3C=C\%24)N%22,428,660,toluene,835000,,,0.907,Toluene,,,,,,"428, 557, 595, 641 ",10.1016/j.dyepig.2021.109754
1449,3_241,T-C60-P-Co,TRUE,FC(C(F)=C(F)C(F)=C1F)=C1/C(C2=CC=C3N2)=C(C=C/4)/NC4=C(C5=CC=C(C6=CC(C(CCCC)(CCCC)C7=C8C9=C(C(C=C(C%10N(C)CC%11%12=C%13C%14=C%15C(C%16=C%17C%18=C%19C%20=C%16%21)=C%11%10C%21=C%22C%23=C(C%24=C%25C%26=C%27C%28=C%29%30)C%31=C%22C%20=C(C%32=C%31C%25=C%28C%32=C%33C%30=C%34%35)C%19=C%33C%35=C%18C%36=C%17C%15=C%37C%14=C%38C%39=C%13C(C%24=C%26C%39=C%40C%27=C%29C%41=C%34C%36=C%37C%41=C%38%40)=C%12%23)C=C%42)=C%42C9(CCCC)CCCC)C%43=C7C(C=CC(/C(C%44=N/C(C=C%44)=C%45/C%46=CC(C(C)(C)C)=CC(C(C)(C)C)=C%46)=C(C=C/%47)/N%48C%47=C(C%49=CC(C(C)(C)C)=CC(C(C)(C)C)=C%49)/C(C=C/%50)=NC%50=C(C%51=CC=CC=C%51)/C%52=CC=C%45N%52[Zn]%48)=C%53)=C%53C%43(CCCC)CCCC)=C8C=C6)C=C5)/C%54=CC=C(/C(C%55=C(F)C(F)=C(F)C(F)=C%55F)=C%56N=C3C=C\%56)N%54,427,660,toluene,673000,,,0.843,Toluene,,,,,,"427, 557, 595, 640",10.1016/j.dyepig.2021.109754
1450,3_242,DMATMPyP,FALSE,C[N+](C=C1)=CC=C1/C(C2=CC=C(/C(C3=CC=[N+](C)C=C3)=C4N=C(/C(C5=CC=[N+](C)C=C5)=C(C=C/6)\NC6=C7\C8=CC=C(N(C)C)C=C8)C=C\4)N2)=C9C=CC7=N\9,420,,sodium phosphate buffer,,0.037,,0.18,sodium phosphate buffer,,-11.5,-7.3,-4.2,theoretical,,10.1021/acsomega.0c04303
1451,3_243,H+-DMATMPyP,FALSE,C[N+](C=C1)=CC=C1/C(C2=CC=C(/C(C3=CC=[N+](C)C=C3)=C4N=C(/C(C5=CC=[N+](C)C=C5)=C(C=C/6)\NC6=C7\C8=CC=C([N+](C)([H])C)C=C8)C=C\4)N2)=C9C=CC7=N\9,425,,sodium phosphate buffer,,0.12,,0.36,sodium phosphate buffer,,-14.9,-9.4,-5.5,theoretical,,10.1021/acsomega.0c04303
1452,3_244,DBP,FALSE,CC1=C(CC)/C(N/C1=C\2)=C/C(C3=C/4C=CC=C3)=NC4=C/C5=C(C)C(CC)=C(/C=C6N=C2C7=C\6C=CC=C7)N5,410,644,DMF,,0.21,,0.65,DMF,,,,,,,10.1039/b301637d
1453,3_244,DBP,FALSE,CC1=C(CC)/C(N/C1=C\2)=C/C(C3=C/4C=CC=C3)=NC4=C/C5=C(C)C(CC)=C(/C=C6N=C2C7=C\6C=CC=C7)N5,412,646,TX-100,295001,0.29,,0.56,TX-100,,,,,,,10.1039/b301637d
1454,3_245,"5,10,15,20-tetrakis(4-fluorophenyl) porphyrin",FALSE,FC(C=C1)=CC=C1/C(C2=N/C(C=C2)=C3/C4=CC=C(F)C=C4)=C(C=C/5)/NC5=C(C6=CC=C(F)C=C6)/C(C=C/7)=NC7=C(C8=CC=C(F)C=C8)/C9=CC=C3N9,413,650,ethyl acetate,,0.21,,0.82,air,,,,,,"413, 512,545, 591, 649",10.1007/s10534-021-00357-2 
1455,3_246,"5,10,15,20-tetrakis(4-fluorophenyl) porphyrin Zn-II",TRUE,FC(C=C1)=CC=C1C2=C(C=C3)N4C3=C(C5=CC=C(F)C=C5)C(C=C6)=[N]7C6=C(C8=CC=C(F)C=C8)C9=CC=C%10N9[Zn]47[N]%11=C2C=CC%11=C%10C%12=CC=C(F)C=C%12,422,603,ethyl acetate,,0.013,,0.89,air,,,,,,"422, 557, 597 ",10.1007/s10534-021-00357-2 
1456,3_247,"5,10,15,20-tetrakis(4-fluorophenyl) porphyrin Sn-IV",TRUE,FC(C=C1)=CC=C1C2=C(C=C3)N4C3=C(C5=CC=C(F)C=C5)C(C=C6)=[N]7C6=C(C8=CC=C(F)C=C8)C9=CC=C%10N9[Sn]47(Cl)(Cl)[N]%11=C2C=CC%11=C%10C%12=CC=C(F)C=C%12,413,649,ethyl acetate,,0.23,,0.67,air,,,,,,"413, 511, 647",10.1007/s10534-021-00357-2 
1457,3_248,"5,10,15,20-tetrakis(4-fluorophenyl) porphyrin M- III",TRUE,FC(C=C1)=CC=C1C2=C(C=C3)N4C3=C(C5=CC=C(F)C=C5)C(C=C6)=[N]7C6=C(C8=CC=C(F)C=C8)C9=CC=C%10N9[Mn]47(Cl)[N]%11=C2C=CC%11=C%10C%12=CC=C(F)C=C%12,413,652,ethyl acetate,,0.18,,0.78,air,,,,,,"413, 510",10.1007/s10534-021-00357-2 
1458,3_249,"5,10,15,20-tetrakis(4-fluorophenyl) porphyrin V- IV",TRUE,FC(C=C1)=CC=C1C(C2=[N]3C(C=C2)=C4C5=CC=C(F)C=C5)=C(C=C6)N7C6=C(C8=CC=C(F)C=C8)C(C=C9)=[N]%10C9=C(C%11=CC=C(F)C=C%11)C%12=CC=C4N%12[V]7%103=O,415,651,ethyl acetate,,0.01,,0.8,air,,,,,,"415, 514, 548, 592 ",10.1007/s10534-021-00357-2 
1459,3_250,2-TQP,FALSE,C1(/C(C2=NC=C(C=CC=C3)C3=C2)=C(C=C/4)\NC4=C5\C6=NC=C(C=CC=C7)C7=C6)=N/C(C=C1)=C(C8=NC=C(C=CC=C9)C9=C8)\C%10=CC=C(/C(C%11=NC=C(C=CC=C%12)C%12=C%11)=C%13C=CC5=N/%13)N%10,422.5,657,tetrahydrofuran,124000,0.095,,0.62,tetrahydrofuran,,,,,,"422.5, 552, 590, 648",10.3390/molecules21040439
1460,3_251,H2P-0,FALSE,C1(/C=C(C=C/2)\NC2=C/3)=N/C(C=C1)=C\C4=CC=C(/C=C5C=CC3=N/5)N4,396,682,toluene,,0.049,,,,,-7.006,-1.29,-5.716,theoretical,"396, 489, 519, 563, 616 ", 10.1021/acs.jpca.6b09483
1461,3_251,H2P-0,FALSE,C1(/C=C(C=C/2)\NC2=C/3)=N/C(C=C1)=C\C4=CC=C(/C=C5C=CC3=N/5)N4,392,677,DMF,,0.051,,,,,-7.006,-1.29,-5.716,theoretical,"392, 487, 518, 560, 612 ", 10.1021/acs.jpca.6b09483
1462,3_252,H2P-1,FALSE,C1(/C=C(C=C/2)\NC2=C/3)=N/C(C=C1)=C\C4=CC=C(/C(C5=CC=CC=C5)=C6C=CC3=N/6)N4,402,690,toluene,,0.063,,,,,-6.938,-1.315,-5.623,theoretical,"402, 495, 527, 569, 623", 10.1021/acs.jpca.6b09483
1463,3_252,H2P-1,FALSE,C1(/C=C(C=C/2)\NC2=C/3)=N/C(C=C1)=C\C4=CC=C(/C(C5=CC=CC=C5)=C6C=CC3=N/6)N4,399,687,DMF,,0.059,,,,,-6.938,-1.315,-5.623,theoretical,"399, 494, 525, 567, 620", 10.1021/acs.jpca.6b09483
1464,3_253,H2P-2c,FALSE,C1(/C=C(C=C/2)\NC2=C/3)=N/C(C=C1)=C(C4=CC=CC=C4)\C5=CC=C(/C(C6=CC=CC=C6)=C7C=CC3=N/7)N5,408,699,toluene,,0.063,,,,,-6.897,-1.307,-5.59,theoretical,"408, 502, 533, 576, 633 ", 10.1021/acs.jpca.6b09483
1465,3_253,H2P-2c,FALSE,C1(/C=C(C=C/2)\NC2=C/3)=N/C(C=C1)=C(C4=CC=CC=C4)\C5=CC=C(/C(C6=CC=CC=C6)=C7C=CC3=N/7)N5,405,695,DMF,,0.057,,,,,-6.897,-1.307,-5.59,theoretical,"405, 500, 531, 574, 629 ", 10.1021/acs.jpca.6b09483