,index,name,metal_complex,SMILES,max_absorption_peak,max_emission_peak,solvant_spectrum,molar_extinction_coefficient,quantum_yield_fluorescence,max_phosphorescence_peak,quantum_yield_singlet_oxygen,solvant_quantum_yield,energy_level_exited_triplet_state,energy_level_HUMO,energy_level_LUMO,difference_HOMO_and_LUMO,method_for_HOMO/LUMO,all_absoption_peaks,reference_DOI
171,2_59,BDPa,FALSE,F[B](N9C8=CC=C9)(F)[N]1=CC=CC1=C8C(C=C4)=CC2=C4N(CCCCCCCC)C3=C2C=C(C(C6=CC=CN6[B](F)7F)=C5[N]7=CC=C5)C=C3,500,607,CH2Cl2,36800,0.21,,,,,-5.52,-3.27,-2.25,electrochemistry,,dx.doi.org/10.1071/CH16704
172,2_60,BDPb,FALSE,F[B]2(F)[N]1=CC=CC1=C(C(C=C%11)=CC=C%11C(C=C6)=CC4=C6N(CCCCCCCC)C5=C4C=C(C7=CC=C(C(C9=CC=CN9[B](F)%10F)=C8[N]%10=CC=C8)C=C7)C=C5)C3=CC=CN23,501,717,CH2Cl2,17600,0.15,,,,,-5.38,-3.14,-2.24,electrochemistry,,dx.doi.org/10.1071/CH16704
173,2_61,BDPc,FALSE,F[B]2(F)[N]1=CC=CC1=C(C(S%11)=CC=C%11C(C=C6)=CC4=C6N(CCCCCCCC)C5=C4C=C(C7=CC=C(C(C9=CC=CN9[B](F)%10F)=C8[N]%10=CC=C8)S7)C=C5)C3=CC=CN23,512,721,CH2Cl2,43000,0.02,,,,,-5.48,-3.57,-1.91,electrochemistry,,dx.doi.org/10.1071/CH16704
174,2_62,BDPd,FALSE,F[B]2(F)[N]1=CC=CC1=C(C(O%11)=CC=C%11C(C=C6)=CC4=C6N(CCCCCCCC)C5=C4C=C(C7=CC=C(C(C9=CC=CN9[B](F)%10F)=C8[N]%10=CC=C8)O7)C=C5)C3=CC=CN23,525,719,CH2Cl2,14600,0.01,,,,,-5.59,-3.75,-1.84,electrochemistry,,dx.doi.org/10.1071/CH16704
175,2_63,BbF 1,FALSE,F[B@@]([N]3=C(C=CC=C6)C6=CC3=C4C5=CC=CC=C5)(F)N1C4=CC=C1C2=CC=CC=C2,553,701,CH2Cl2,52000,0,,,,,-6.27,-4.28,-1.99,electrochemistry,"277, 287, 374, 517, 553 ",10.1039/C5DT04444H
176,2_63,BbF 1,FALSE,F[B@@]([N]3=C(C=CC=C6)C6=CC3=C4C5=CC=CC=C5)(F)N1C4=CC=C1C2=CC=CC=C2,545,734,acetonitrile,39000,0,,,,,-6.13,-3.23,-2.9,theoretical,"274, 282, 373, 513, 545",10.1039/C5DT04444H
177,2_64,BbF 2,FALSE,F[B@@]([N]3=C(C=CC=C6)C6=CC3=C4C5=CC=CC=C5)(F)N1C4=CC=C1C2=CC=C(C)C=C2,557,684,CH2Cl2,45000,0.02,,,,,-6.31,-4.31,-2,electrochemistry,"275, 302, 377, 521, 557",10.1039/C5DT04444H
178,2_64,BbF 2,FALSE,F[B@@]([N]3=C(C=CC=C6)C6=CC3=C4C5=CC=CC=C5)(F)N1C4=CC=C1C2=CC=C(C)C=C2,557,684,CH2Cl2,45000,0.02,,,,,-6.07,-3.2,-2.87,theoretical,"275, 302, 377, 521, 557",10.1039/C5DT04444H
179,2_65,BbF 3,FALSE,F[B@@]([N]3=C(C=CC=C6)C6=CC3=C4C5=CC=CC=C5)(F)N1C4=CC=C1C2=CC=C(C(C)C)C=C2,558,679,CH2Cl2,57000,0.02,,,,,-6.26,-4.27,-1.99,electrochemistry,"276, 303, 378, 523, 558 ",10.1039/C5DT04444H
180,2_65,BbF 3,FALSE,F[B@@]([N]3=C(C=CC=C6)C6=CC3=C4C5=CC=CC=C5)(F)N1C4=CC=C1C2=CC=C(C(C)C)C=C2,558,679,CH2Cl2,57000,0.02,,,,,-6.07,-3.2,-2.87,theoretical,"276, 303, 378, 523, 558 ",10.1039/C5DT04444H
181,2_66,BbF 4,FALSE,F[B@@]([N]3=C(C=CC=C6)C6=CC3=C4C5=CC=CC=C5)(F)N1C4=CC=C1C2=CC=C(C(C)(C)C)C=C2,559,677,CH2Cl2,56000,0.01,,,,,-6.22,-4.34,-1.88,electrochemistry,"277, 303, 378, 525, 559",10.1039/C5DT04444H
182,2_66,BbF 4,FALSE,F[B@@]([N]3=C(C=CC=C6)C6=CC3=C4C5=CC=CC=C5)(F)N1C4=CC=C1C2=CC=C(C(C)(C)C)C=C2,559,677,CH2Cl2,56000,0.01,,,,,-6.07,-3.2,-2.87,theoretical,"277, 303, 378, 525, 559",10.1039/C5DT04444H
183,2_67,BbF 5,FALSE,F[B@@]([N]3=C(C=CC=C6)C6=CC3=C4C5=CC=CC=C5)(F)N1C4=CC=C1C2=CC(OC)=CC=C2,567,606,CH2Cl2,53000,0.05,,,,,-6.25,-4.31,-1.94,electrochemistry,"278, 314, 401, 537, 567",10.1039/C5DT04444H
184,2_67,BbF 5,FALSE,F[B@@]([N]3=C(C=CC=C6)C6=CC3=C4C5=CC=CC=C5)(F)N1C4=CC=C1C2=CC(OC)=CC=C2,559,601,acetonitrile,54000,0,,,,,-5.94,-3.14,-2.8,theoretical,"276,  311, 397, 531, 559",10.1039/C5DT04444H
185,2_69,BbF 7,FALSE,F[B@@]([N]3=C(C=CC=C6)C6=CC3=C4C5=CC=CC=C5)(F)N1C4=CC=C1C2=CC(OC)=CC(OC)=C2,557,689,CH2Cl2,52000,0.01,,,,,-6.34,-4.3,-2.04,electrochemistry,"277, 307, 377, 522, 557",10.1039/C5DT04444H
186,2_69,BbF 7,FALSE,F[B@@]([N]3=C(C=CC=C6)C6=CC3=C4C5=CC=CC=C5)(F)N1C4=CC=C1C2=CC(OC)=CC(OC)=C2,557,689,CH2Cl2,52000,0.01,,,,,-6.12,-3.21,-2.91,theoretical,"277, 307, 377, 522, 557",10.1039/C5DT04444H
187,2_70,BbF 8,FALSE,F[B@@]([N]3=C(C=CC=C6)C6=CC3=C4C5=CC=CC=C5)(F)N1C4=CC=C1C2=CC=C(N(C)C)C=C2,626,757,CH2Cl2,53000,0,,,,,-5.82,-4.15,-1.67,electrochemistry,"301, 336, 446, 597, 626",10.1039/C5DT04444H
188,2_70,BbF 8,FALSE,F[B@@]([N]3=C(C=CC=C6)C6=CC3=C4C5=CC=CC=C5)(F)N1C4=CC=C1C2=CC=C(N(C)C)C=C2,626,757,CH2Cl2,53000,0,,,,,-5.51,-3,-2.51,theoretical,"301, 336, 446, 597, 626",10.1039/C5DT04444H
189,2_71,BbF 9,FALSE,F[B@@]([N]3=C(C=CC=C6)C6=CC3=C4C5=CC=CC=C5)(F)N1C4=CC=C1C2=CC(C=CC(OC)=C7)=C7C=C2,578,626,CH2Cl2,42000,0.11,,,,,-6.2,-4.29,-1.91,electrochemistry,"272, 321, 431, 548, 578",10.1039/C5DT04444H
190,2_71,BbF 9,FALSE,F[B@@]([N]3=C(C=CC=C6)C6=CC3=C4C5=CC=CC=C5)(F)N1C4=CC=C1C2=CC(C=CC(OC)=C7)=C7C=C2,569,632,acetonitrile,37000,0.01,,,,,-5.86,-3.19,-2.67,theoretical,"268, 319, 426, 536, 569",10.1039/C5DT04444H
191,2_72,BbF 10,FALSE,F[B@@]([N]4=C(C=CC=C7)C7=CC4=C5C6=CC=CC=C6)(F)N1C5=CC=C1C2=CC8=C(C=CC=C8)C3=C2C=CC=C3,547,619,CH2Cl2,36000,0,,,,,-6.34,-4.31,-2.03,electrochemistry,"273, 298, 431, 511, 547",10.1039/C5DT04444H
192,2_72,BbF 10,FALSE,F[B@@]([N]4=C(C=CC=C7)C7=CC4=C5C6=CC=CC=C6)(F)N1C5=CC=C1C2=CC8=C(C=CC=C8)C3=C2C=CC=C3,536,593,acetonitrile,40000,0,,,,,-6.07,-3.22,-2.85,theoretical,"284, 296, 426, 502, 536",10.1039/C5DT04444H
193,2_73,S1C,FALSE,CSC(C2=CC=CN2[B](F)3F)=C1[N]3=CC=C1,485,528,CH3CN,,,,0.37,CH3CN,,,,,,,10.1021/acs.jpcc.1c00001
194,2_73,S1C,FALSE,CSC(C2=CC=CN2[B](F)3F)=C1[N]3=CC=C1,487,529,CH3OH,,,,0.48,CH3OH,,,,,,,10.1021/acs.jpcc.1c00001
195,2_73,S1C,FALSE,CSC(C2=CC=CN2[B](F)3F)=C1[N]3=CC=C1,486,529, Acetone,,,,0.27, Acetone,,,,,,,10.1021/acs.jpcc.1c00001
196,2_73,S1C,FALSE,CSC(C2=CC=CN2[B](F)3F)=C1[N]3=CC=C1,489,531, Pinacolone,,,,0.49, Pinacolone,,,,,,,10.1021/acs.jpcc.1c00001
197,2_73,S1C,FALSE,CSC(C2=CC=CN2[B](F)3F)=C1[N]3=CC=C1,490,531, THF,,,,0.48, THF,,,,,,,10.1021/acs.jpcc.1c00001
198,2_73,S1C,FALSE,CSC(C2=CC=CN2[B](F)3F)=C1[N]3=CC=C1,488,529,EtOAc,,,,0.46,EtOAc,,,,,,,10.1021/acs.jpcc.1c00001
199,2_73,S1C,FALSE,CSC(C2=CC=CN2[B](F)3F)=C1[N]3=CC=C1,494,530, n-hexane,,,,0.71, n-hexane,,,,,,,10.1021/acs.jpcc.1c00001
200,2_74,S2C,FALSE,F[B]([N]2=CC=CC2=C3SCC)(F)N1C3=CC=C1,485,528,CH3CN,,,,0.23,CH3CN,,,,,,,10.1021/acs.jpcc.1c00001
201,2_74,S2C,FALSE,F[B]([N]2=CC=CC2=C3SCC)(F)N1C3=CC=C1,489,529,CH3OH,,,,0.35,CH3OH,,,,,,,10.1021/acs.jpcc.1c00001
202,2_74,S2C,FALSE,F[B]([N]2=CC=CC2=C3SCC)(F)N1C3=CC=C1,488,530, Acetone,,,,0.38, Acetone,,,,,,,10.1021/acs.jpcc.1c00001
203,2_74,S2C,FALSE,F[B]([N]2=CC=CC2=C3SCC)(F)N1C3=CC=C1,488,531, Pinacolone,,,,0.53, Pinacolone,,,,,,,10.1021/acs.jpcc.1c00001
204,2_74,S2C,FALSE,F[B]([N]2=CC=CC2=C3SCC)(F)N1C3=CC=C1,492,533, THF,,,,0.48, THF,,,,,,,10.1021/acs.jpcc.1c00001
205,2_74,S2C,FALSE,F[B]([N]2=CC=CC2=C3SCC)(F)N1C3=CC=C1,488,530,EtOAc,,,,0.41,EtOAc,,,,,,,10.1021/acs.jpcc.1c00001
206,2_74,S2C,FALSE,F[B]([N]2=CC=CC2=C3SCC)(F)N1C3=CC=C1,494,531, n-hexane,,,,0.7, n-hexane,,,,,,,10.1021/acs.jpcc.1c00001
207,2_75,S3C,FALSE,F[B]([N]2=CC=CC2=C3SCCC)(F)N1C3=CC=C1,487,529,CH3CN,,,,0.34,CH3CN,,,,,,,10.1021/acs.jpcc.1c00001
208,2_75,S3C,FALSE,F[B]([N]2=CC=CC2=C3SCCC)(F)N1C3=CC=C1,489,529,CH3OH,,,,0.51,CH3OH,,,,,,,10.1021/acs.jpcc.1c00001
209,2_75,S3C,FALSE,F[B]([N]2=CC=CC2=C3SCCC)(F)N1C3=CC=C1,489,530, Acetone,,,,0.31, Acetone,,,,,,,10.1021/acs.jpcc.1c00001
210,2_75,S3C,FALSE,F[B]([N]2=CC=CC2=C3SCCC)(F)N1C3=CC=C1,490,531, Pinacolone,,,,0.44, Pinacolone,,,,,,,10.1021/acs.jpcc.1c00001
211,2_75,S3C,FALSE,F[B]([N]2=CC=CC2=C3SCCC)(F)N1C3=CC=C1,492,532, THF,,,,0.46, THF,,,,,,,10.1021/acs.jpcc.1c00001
212,2_75,S3C,FALSE,F[B]([N]2=CC=CC2=C3SCCC)(F)N1C3=CC=C1,490,530,EtOAc,,,,0.6,EtOAc,,,,,,,10.1021/acs.jpcc.1c00001
213,2_75,S3C,FALSE,F[B]([N]2=CC=CC2=C3SCCC)(F)N1C3=CC=C1,494,530, n-hexane,,,,0.69, n-hexane,,,,,,,10.1021/acs.jpcc.1c00001
214,2_76,S4C,FALSE,F[B]([N]2=CC=CC2=C3SCCCC)(F)N1C3=CC=C1,487,530,CH3CN,,,,0.21,CH3CN,,,,,,,10.1021/acs.jpcc.1c00001
215,2_76,S4C,FALSE,F[B]([N]2=CC=CC2=C3SCCCC)(F)N1C3=CC=C1,489,528,CH3OH,,,,0.33,CH3OH,,,,,,,10.1021/acs.jpcc.1c00001
216,2_76,S4C,FALSE,F[B]([N]2=CC=CC2=C3SCCCC)(F)N1C3=CC=C1,489,529, Acetone,,,,0.37, Acetone,,,,,,,10.1021/acs.jpcc.1c00001
217,2_76,S4C,FALSE,F[B]([N]2=CC=CC2=C3SCCCC)(F)N1C3=CC=C1,491,530, Pinacolone,,,,0.3, Pinacolone,,,,,,,10.1021/acs.jpcc.1c00001
218,2_76,S4C,FALSE,F[B]([N]2=CC=CC2=C3SCCCC)(F)N1C3=CC=C1,493,533, THF,,,,0.42, THF,,,,,,,10.1021/acs.jpcc.1c00001
219,2_76,S4C,FALSE,F[B]([N]2=CC=CC2=C3SCCCC)(F)N1C3=CC=C1,491,530,EtOAc,,,,0.46,EtOAc,,,,,,,10.1021/acs.jpcc.1c00001
220,2_76,S4C,FALSE,F[B]([N]2=CC=CC2=C3SCCCC)(F)N1C3=CC=C1,494,531, n-hexane,,,,0.62, n-hexane,,,,,,,10.1021/acs.jpcc.1c00001
221,2_77,S6C,FALSE,F[B]([N]2=CC=CC2=C3SC4CCCCC4)(F)N1C3=CC=C1,494,530,CH3CN,,,,0.17,CH3CN,,,,,,,10.1021/acs.jpcc.1c00001
222,2_77,S6C,FALSE,F[B]([N]2=CC=CC2=C3SC4CCCCC4)(F)N1C3=CC=C1,501,530,CH3OH,,,,0.33,CH3OH,,,,,,,10.1021/acs.jpcc.1c00001
223,2_77,S6C,FALSE,F[B]([N]2=CC=CC2=C3SC4CCCCC4)(F)N1C3=CC=C1,513,531, Acetone,,,,0.24, Acetone,,,,,,,10.1021/acs.jpcc.1c00001
224,2_77,S6C,FALSE,F[B]([N]2=CC=CC2=C3SC4CCCCC4)(F)N1C3=CC=C1,515,533, Pinacolone,,,,0.44, Pinacolone,,,,,,,10.1021/acs.jpcc.1c00001
225,2_77,S6C,FALSE,F[B]([N]2=CC=CC2=C3SC4CCCCC4)(F)N1C3=CC=C1,517,535, THF,,,,0.42, THF,,,,,,,10.1021/acs.jpcc.1c00001
226,2_77,S6C,FALSE,F[B]([N]2=CC=CC2=C3SC4CCCCC4)(F)N1C3=CC=C1,514,531,EtOAc,,,,0.37,EtOAc,,,,,,,10.1021/acs.jpcc.1c00001
227,2_77,S6C,FALSE,F[B]([N]2=CC=CC2=C3SC4CCCCC4)(F)N1C3=CC=C1,517,532, n-hexane,,,,0.58, n-hexane,,,,,,,10.1021/acs.jpcc.1c00001
228,2_78,S2CC,FALSE,F[B]([N]2=CC=CC2=C3SCC(OC)=O)(F)N1C3=CC=C1,495,536,CH3CN,,,,0.24,CH3CN,,,,,,,10.1021/acs.jpcc.1c00001
229,2_78,S2CC,FALSE,F[B]([N]2=CC=CC2=C3SCC(OC)=O)(F)N1C3=CC=C1,500,537,CH3OH,,,,0.43,CH3OH,,,,,,,10.1021/acs.jpcc.1c00001
230,2_78,S2CC,FALSE,F[B]([N]2=CC=CC2=C3SCC(OC)=O)(F)N1C3=CC=C1,498,536, Acetone,,,,0.45, Acetone,,,,,,,10.1021/acs.jpcc.1c00001
231,2_78,S2CC,FALSE,F[B]([N]2=CC=CC2=C3SCC(OC)=O)(F)N1C3=CC=C1,500,538, Pinacolone,,,,0.46, Pinacolone,,,,,,,10.1021/acs.jpcc.1c00001
232,2_78,S2CC,FALSE,F[B]([N]2=CC=CC2=C3SCC(OC)=O)(F)N1C3=CC=C1,499,539, THF,,,,0.45, THF,,,,,,,10.1021/acs.jpcc.1c00001
233,2_78,S2CC,FALSE,F[B]([N]2=CC=CC2=C3SCC(OC)=O)(F)N1C3=CC=C1,498,537,EtOAc,,,,0.43,EtOAc,,,,,,,10.1021/acs.jpcc.1c00001
234,2_78,S2CC,FALSE,F[B]([N]2=CC=CC2=C3SCC(OC)=O)(F)N1C3=CC=C1,523,539, n-hexane,,,,0.55, n-hexane,,,,,,,10.1021/acs.jpcc.1c00001
235,2_79,SPO,FALSE,F[B]([N]2=CC=CC2=C3SC4=CC=C(OC)C=C4)(F)N1C3=CC=C1,489,528,CH3CN,,,,0.011,CH3CN,,,,,,,10.1021/acs.jpcc.1c00001
236,2_79,SPO,FALSE,F[B]([N]2=CC=CC2=C3SC4=CC=C(OC)C=C4)(F)N1C3=CC=C1,490,529,CH3OH,,,,0.025,CH3OH,,,,,,,10.1021/acs.jpcc.1c00001
237,2_79,SPO,FALSE,F[B]([N]2=CC=CC2=C3SC4=CC=C(OC)C=C4)(F)N1C3=CC=C1,490,529, Acetone,,,,0.012, Acetone,,,,,,,10.1021/acs.jpcc.1c00001
238,2_79,SPO,FALSE,F[B]([N]2=CC=CC2=C3SC4=CC=C(OC)C=C4)(F)N1C3=CC=C1,492,530, Pinacolone,,,,0.07, Pinacolone,,,,,,,10.1021/acs.jpcc.1c00001
239,2_79,SPO,FALSE,F[B]([N]2=CC=CC2=C3SC4=CC=C(OC)C=C4)(F)N1C3=CC=C1,493,532, THF,,,,0.016, THF,,,,,,,10.1021/acs.jpcc.1c00001
240,2_79,SPO,FALSE,F[B]([N]2=CC=CC2=C3SC4=CC=C(OC)C=C4)(F)N1C3=CC=C1,491,529,EtOAc,,,,0.041,EtOAc,,,,,,,10.1021/acs.jpcc.1c00001
241,2_79,SPO,FALSE,F[B]([N]2=CC=CC2=C3SC4=CC=C(OC)C=C4)(F)N1C3=CC=C1,494,530, n-hexane,,,,0.025, n-hexane,,,,,,,10.1021/acs.jpcc.1c00001
242,2_80,SPf,FALSE,F[B]([N]2=CC=CC2=C3SC4=CC=C(F)C=C4)(F)N1C3=CC=C1,493,528,CH3CN,,,,0.039,CH3CN,,,,,,,10.1021/acs.jpcc.1c00001
243,2_80,SPf,FALSE,F[B]([N]2=CC=CC2=C3SC4=CC=C(F)C=C4)(F)N1C3=CC=C1,495,529,CH3OH,,,,0.14,CH3OH,,,,,,,10.1021/acs.jpcc.1c00001
244,2_80,SPf,FALSE,F[B]([N]2=CC=CC2=C3SC4=CC=C(F)C=C4)(F)N1C3=CC=C1,495,529, Acetone,,,,0.057, Acetone,,,,,,,10.1021/acs.jpcc.1c00001
245,2_80,SPf,FALSE,F[B]([N]2=CC=CC2=C3SC4=CC=C(F)C=C4)(F)N1C3=CC=C1,496,531, Pinacolone,,,,0.12, Pinacolone,,,,,,,10.1021/acs.jpcc.1c00001
246,2_80,SPf,FALSE,F[B]([N]2=CC=CC2=C3SC4=CC=C(F)C=C4)(F)N1C3=CC=C1,499,532, THF,,,,0.12, THF,,,,,,,10.1021/acs.jpcc.1c00001
247,2_80,SPf,FALSE,F[B]([N]2=CC=CC2=C3SC4=CC=C(F)C=C4)(F)N1C3=CC=C1,496,530,EtOAc,,,,0.15,EtOAc,,,,,,,10.1021/acs.jpcc.1c00001
248,2_80,SPf,FALSE,F[B]([N]2=CC=CC2=C3SC4=CC=C(F)C=C4)(F)N1C3=CC=C1,499,531, n-hexane,,,,0.32, n-hexane,,,,,,,10.1021/acs.jpcc.1c00001
249,2_81,S0C,FALSE,F[B]([N]2=CC=CC2=C3)(F)N1C3=CC=C1,497,506,CH3CN,,,,0.97,CH3CN,,,,,,,10.1021/acs.jpcc.1c00001
250,2_81,S0C,FALSE,F[B]([N]2=CC=CC2=C3)(F)N1C3=CC=C1,496,505,CH3OH,,,,0.96,CH3OH,,,,,,,10.1021/acs.jpcc.1c00001
251,2_81,S0C,FALSE,F[B]([N]2=CC=CC2=C3)(F)N1C3=CC=C1,497,506, Acetone,,,,0.91, Acetone,,,,,,,10.1021/acs.jpcc.1c00001
252,2_81,S0C,FALSE,F[B]([N]2=CC=CC2=C3)(F)N1C3=CC=C1,500,509, THF,,,,0.86, THF,,,,,,,10.1021/acs.jpcc.1c00001
253,2_81,S0C,FALSE,F[B]([N]2=CC=CC2=C3)(F)N1C3=CC=C1,502,509, n-hexane,,,,0.92, n-hexane,,,,,,,10.1021/acs.jpcc.1c00001
254,2_82,DBT,FALSE,F[B]3(F)[N]1=C(CN(CC5=CC(C)=C7N5[B](F)(F)[N]6=C(C)C=C(C)C6=C7C)C4CC(C)(C)N([O])C(C)(C)C4)C=C(C)C1=C(C)C2=C(C)C=C(C)N23,514,524,toluene,133000,0.025,,0.59,toluene,,,,,,,10.1002/ejoc.201701724
255,2_82,DBT,FALSE,F[B]3(F)[N]1=C(CN(CC5=CC(C)=C7N5[B](F)(F)[N]6=C(C)C=C(C)C6=C7C)C4CC(C)(C)N([O])C(C)(C)C4)C=C(C)C1=C(C)C2=C(C)C=C(C)N23,514,524,toluene,133000,0.025,,0.18,acetonitrile,,,,,,,10.1002/ejoc.201701724
256,2_83,DB,FALSE,F[B]3(F)[N]1=C(CN(CC4=CC(C)=C6N4[B](F)(F)[N]5=C(C)C=C(C)C5=C6C)CCC)C=C(C)C1=C(C)C2=C(C)C=C(C)N23,514,524,toluene,132000,0.508,,0.04,toluene,,,,,,,10.1002/ejoc.201701724
257,2_83,DB,FALSE,F[B]3(F)[N]1=C(CN(CC4=CC(C)=C6N4[B](F)(F)[N]5=C(C)C=C(C)C5=C6C)CCC)C=C(C)C1=C(C)C2=C(C)C=C(C)N23,514,524,toluene,132000,0.508,,0.26,acetonitrile,,,,,,,10.1002/ejoc.201701724
258,2_84,BT,FALSE,F[B]3(F)[N]1=C(CNC4CC(C)(C)N([O])C(C)(C)C4)C=C(C)C1=C(C)C2=C(C)C=C(C)N23,502,516,toluene,90000,0.039,,0.55,toluene,,,,,,,10.1002/ejoc.201701724
259,2_84,BT,FALSE,F[B]3(F)[N]1=C(CNC4CC(C)(C)N([O])C(C)(C)C4)C=C(C)C1=C(C)C2=C(C)C=C(C)N23,502,516,toluene,90000,0.039,,0,acetonitrile,,,,,,,10.1002/ejoc.201701724
260,2_85,NBDP-SAL,FALSE,CC(C(I)=C4/C=C/C5=CC=CC=C5OCC6=CC=CC=N6)=C2N4[B-](F)(F)[N+]1=C(/C=C/C7=C(OCC8=NC=CC=C8)C=CC=C7)C(I)=C(C)C1=C2C3=CC=C([N+]([O-])=O)C=C3,675,730,DMSO,119197.21,,,0.46,DMSO,,,,,,,10.1021/acsmedchemlett.7b00490
261,2_86,NBDP-NEVER,FALSE,CC(C(I)=C4/C=C/C5=CC(OC)=C(OC)C=C5[N+]([O-])=O)=C2N4[B-](F)(F)[N+]1=C(/C=C/C6=C([N+]([O-])=O)C=C(OC)C(OC)=C6)C(I)=C(C)C1=C2C3=CC=C([N+]([O-])=O)C=C3,684,725,DMSO,120917.41,,,0.37,DMSO,,,,,,,10.1021/acsmedchemlett.7b00490
262,2_87,NBDP-VER,FALSE,CC(C(I)=C4/C=C/C5=CC(OC)=C(OC)C=C5)=C2N4[B-](F)(F)[N+]1=C(/C=C/C6=CC=C(OC)C(OC)=C6)C(I)=C(C)C1=C2C3=CC=C([N+]([O-])=O)C=C3,657,700,DMSO,92822.28,,,0.8,DMSO,,,,,,,10.1021/acsmedchemlett.7b00490
263,2_88,PBDP-VER,FALSE,CC(C(I)=C4/C=C/C5=CC(OC)=C(OC)C=C5)=C2N4[B-](F)(F)[N+]1=C(/C=C/C6=CC=C(OC)C(OC)=C6)C(I)=C(C)C1=C2C3=CC=CC=C3,664,695,DMSO,82364.86,,,0.4,DMSO,,,,,,,10.1021/acsmedchemlett.7b00490
264,2_89,BODIPY1,FALSE,CC(C5=C4C=C(OC)C=C5)=C2N4[B](F)(F)[N]1=C([H])C=CC1=C2C3=CC=CC=C3,551,,DMSO,83900,,,0.03,DPBF,,,,,,,10.1016/j.ejmech.2018.08.024
265,2_90,BODIPY2,FALSE,CC(C5=C4C=C(OC)C=C5)=C2N4[B](F)(F)[N]1=C(Cl)C=CC1=C2C3=CC=CC=C3,559,,DMSO,64500,,,0.06,DPBF,,,,,,,10.1016/j.ejmech.2018.08.024
266,2_91,BODIPY3,FALSE,CC(C5=C4C(I)=C(OC)C(I)=C5)=C2N4[B](F)(F)[N]1=C([H])C(I)=CC1=C2C3=CC=CC=C3,598,,DMSO,80700,,,0.81,DPBF,,,,,,,10.1016/j.ejmech.2018.08.024
267,2_92,BODIPY4,FALSE,CC(C5=C4C([H])=C(OC)C(I)=C5)=C2N4[B](F)(F)[N]1=C([H])C(I)=CC1=C2C3=CC=CC=C3,593,,DMSO,31300,,,0.49,DPBF,,,,,,,10.1016/j.ejmech.2018.08.024
268,2_93,BODIPY5,FALSE,CC(C5=C4C([H])=C(OC)C(I)=C5)=C2N4[B](F)(F)[N]1=C(Cl)C(I)=CC1=C2C3=CC=CC=C3,583,,DMSO,58200,,,0.87,DPBF,,,,,,,10.1016/j.ejmech.2018.08.024
269,2_94,BODIPY6,FALSE,CC(C5=C4C=C(OC)C(I)=C5)=C2N4[B](F)(F)[N]1=C(SC[C@@H](C(O)=O)NC(C)=O)C(I)=CC1=C2C3=CC=CC=C3,568,,DMSO,26400,,,0.61,DPBF,,,,,,,10.1016/j.ejmech.2018.08.024
270,2_95,BODIPY7,FALSE,CC(C5=C4C=C(OC)C(I)=C5)=C2N4[B](F)(F)[N]1=C(N6CCOCC6)C(I)=CC1=C2C3=CC=CC=C3,605,,DMSO,14500,,,0.88,DPBF,,,,,,,10.1016/j.ejmech.2018.08.024
271,2_96,BODIPY derivatives 1,FALSE,CC2=C(I)C(C)=[N+](C2=C3C4=CC=CC=C4)[B@-](F)(F)N1C3=C(C)C([H])=C1C,515,,CH2Cl2,39500,,,0.619,DPBF,,,,,,,10.1016/j.dyepig.2018.08.007
272,2_97,BODIPY derivatives2,FALSE,CC2=C(I)C(C)=[N+](C2=C3C4=CC=CC=C4)[B@-](F)(F)N1C3=C(C)C(I)=C1C,534,,CH2Cl2,37200,,,0.664,DPBF,,,,,,,10.1016/j.dyepig.2018.08.007
273,2_98,BODIPY derivatives 3,FALSE,CC2=C(Br)C(C)=[N+](C2=C3C4=CC=CC=C4)[B@-](F)(F)N1C3=C(C)C([H])=C1C,516,547,CH2Cl2,45400,0.08,,0.155,DPBF,,,,,,,10.1016/j.dyepig.2018.08.007
274,2_99,BODIPY derivatives 4,FALSE,CC2=C(Br)C(C)=[N+](C2=C3C4=CC=CC=C4)[B@-](F)(F)N1C3=C(C)C(Br)=C1C,538,569,CH2Cl2,41400,0.07,,0.205,DPBF,,,,,,,10.1016/j.dyepig.2018.08.007
275,2_100,BODIPY dyes 2a,FALSE,CC3=C(Br)C(/C=C/C6=CC=C(OCC8=CC=CC=C8)C=C6)=[N+](C3=C4C5=CC=C([N+]([O-])=O)C=C5)[B-](F)(F)N1C4=C(C)C(Br)=C1/C=C/C2=CC=C(OCC7=CC=CC=C7)C=C2,676,702,EtOH,,0.11,,0.19,EtOH,,-6.18,-2.21,-3.97,theoretical,,10.1142/S1088424617500420
276,2_100,BODIPY dyes 2a,FALSE,CC3=C(Br)C(/C=C/C6=CC=C(OCC8=CC=CC=C8)C=C6)=[N+](C3=C4C5=CC=C([N+]([O-])=O)C=C5)[B-](F)(F)N1C4=C(C)C(Br)=C1/C=C/C2=CC=C(OCC7=CC=CC=C7)C=C2,683,715,DMSO,,0.09,,0.28,DMSO,,-6.18,-2.21,-3.97,theoretical,,10.1142/S1088424617500420
277,2_100,BODIPY dyes 2a,FALSE,CC3=C(Br)C(/C=C/C6=CC=C(OCC8=CC=CC=C8)C=C6)=[N+](C3=C4C5=CC=C([N+]([O-])=O)C=C5)[B-](F)(F)N1C4=C(C)C(Br)=C1/C=C/C2=CC=C(OCC7=CC=CC=C7)C=C2,680,711,DMF,,0.07,,0.24,DMF,,-6.18,-2.21,-3.97,theoretical,,10.1142/S1088424617500420
278,2_100,BODIPY dyes 2a,FALSE,CC3=C(Br)C(/C=C/C6=CC=C(OCC8=CC=CC=C8)C=C6)=[N+](C3=C4C5=CC=C([N+]([O-])=O)C=C5)[B-](F)(F)N1C4=C(C)C(Br)=C1/C=C/C2=CC=C(OCC7=CC=CC=C7)C=C2,680,703,THF,,0.13,,0.34,THF,,-6.18,-2.21,-3.97,theoretical,,10.1142/S1088424617500420
279,2_101,BODIPY dyes 2b,FALSE,BrC(C=C4)=CC=C4C(C2=C(C)C(Br)=C(/C=C/C5=CC=C(OCC7=CC=CC=C7)C=C5)N2[B-](F)3F)=C1[N+]3=C(/C=C/C6=CC=C(OCC8=CC=CC=C8)C=C6)C(Br)=C1C,668,,EtOH,,,,0.23,EtOH,,-6.15,-2.14,-4.01,theoretical,,10.1142/S1088424617500420
280,2_101,BODIPY dyes 2b,FALSE,BrC(C=C4)=CC=C4C(C2=C(C)C(Br)=C(/C=C/C5=CC=C(OCC7=CC=CC=C7)C=C5)N2[B-](F)3F)=C1[N+]3=C(/C=C/C6=CC=C(OCC8=CC=CC=C8)C=C6)C(Br)=C1C,677,715,DMSO,,0.12,,0.26,DMSO,,-6.15,-2.14,-4.01,theoretical,,10.1142/S1088424617500420
281,2_101,BODIPY dyes 2b,FALSE,BrC(C=C4)=CC=C4C(C2=C(C)C(Br)=C(/C=C/C5=CC=C(OCC7=CC=CC=C7)C=C5)N2[B-](F)3F)=C1[N+]3=C(/C=C/C6=CC=C(OCC8=CC=CC=C8)C=C6)C(Br)=C1C,670,707,DMF,,0.11,,,,,-6.15,-2.14,-4.01,theoretical,,10.1142/S1088424617500420
282,2_101,BODIPY dyes 2b,FALSE,BrC(C=C4)=CC=C4C(C2=C(C)C(Br)=C(/C=C/C5=CC=C(OCC7=CC=CC=C7)C=C5)N2[B-](F)3F)=C1[N+]3=C(/C=C/C6=CC=C(OCC8=CC=CC=C8)C=C6)C(Br)=C1C,670,698,THF,,0.19,,0.27,THF,,-6.15,-2.14,-4.01,theoretical,,10.1142/S1088424617500420
283,2_102,BODIPY dyes 2b-Br,FALSE,BrC(C=C4)=CC=C4C(C2=C(C)C(Br)=C(C)N2[B-](F)3F)=C1[N+]3=C(C)C(Br)=C1C,532,543,EtOH,,0.3,,0.65,EtOH,,-6.96,-1.89,-5.07,theoretical,,10.1142/S1088424617500420
284,2_102,BODIPY dyes 2b-Br,FALSE,BrC(C=C4)=CC=C4C(C2=C(C)C(Br)=C(C)N2[B-](F)3F)=C1[N+]3=C(C)C(Br)=C1C,530,546,DMSO,,0.18,,0.82,DMSO,,-6.96,-1.89,-5.07,theoretical,,10.1142/S1088424617500420
285,2_103,BODIPY dyes 2c,FALSE,BrC(C=C4)=CC=C4C(C2=C(C)C(Br)=C(/C=C/C5=CC=C(O)C=C5)N2[B-](F)3F)=C1[N+]3=C(/C=C/C6=CC=C(O)C=C6)C(Br)=C1C,666,706,EtOH,,0.09,,0.16,EtOH,,,,,,,10.1142/S1088424617500420
286,2_103,BODIPY dyes 2c,FALSE,BrC(C=C4)=CC=C4C(C2=C(C)C(Br)=C(/C=C/C5=CC=C(O)C=C5)N2[B-](F)3F)=C1[N+]3=C(/C=C/C6=CC=C(O)C=C6)C(Br)=C1C,680,716,DMSO,,0.21,,0.1,DMSO,,,,,,,10.1142/S1088424617500420
287,2_103,BODIPY dyes 2c,FALSE,BrC(C=C4)=CC=C4C(C2=C(C)C(Br)=C(/C=C/C5=CC=C(O)C=C5)N2[B-](F)3F)=C1[N+]3=C(/C=C/C6=CC=C(O)C=C6)C(Br)=C1C,676,712,DMF,,0.26,,0.1,DMF,,,,,,,10.1142/S1088424617500420
288,2_103,BODIPY dyes 2c,FALSE,BrC(C=C4)=CC=C4C(C2=C(C)C(Br)=C(/C=C/C5=CC=C(O)C=C5)N2[B-](F)3F)=C1[N+]3=C(/C=C/C6=CC=C(O)C=C6)C(Br)=C1C,674,701,THF,,0.21,,0.11,THF,,,,,,,10.1142/S1088424617500420
289,2_104,BODIPY 36,FALSE,CC2=C(Br)C(C)=[N+](C2=C3C4=CC=CC=C4)[B-](F)(F)N1C3=C(C)C(Br)=C1C,527,,CH2Cl2,,,,0.31,CH2Cl2,,,,,,,10.1016/j.jphotochemrev.2019.04.001
290,2_105,BODIPY 37,FALSE,CC2=C(I)C(C)=[N+](C2=C3C4=CC=CC=C4)[B-](F)(F)N1C3=C(C)C(I)=C1C,533,,CH2Cl2,,,,0.73,CH2Cl2,,,,,,,10.1016/j.jphotochemrev.2019.04.001