,index,name,metal_complex,SMILES,max_absorption_peak,max_emission_peak,solvant_spectrum,molar_extinction_coefficient,quantum_yield_fluorescence,max_phosphorescence_peak,quantum_yield_singlet_oxygen,solvant_quantum_yield,energy_level_exited_triplet_state,energy_level_HUMO,energy_level_LUMO,difference_HOMO_and_LUMO,method_for_HOMO/LUMO,all_absoption_peaks,reference_DOI
927,2_543,T-NDI,FALSE,O=C(N(CC(CCCC)CC)C4=O)C1=C(C4=CC(N([H])CC(CCCC)CC)=C2C(N(CC(CCCC)CC)C3=O)=O)C2=C3C=C1N([H])CC(CCCC)CC,616,640,toluene,25000,0.577,,0.07,toluene,,,,,,,10.1021/acs.jpca.8b03884
928,2_544,Pc-BODIPY-1,TRUE,CI.CI.CI.F[B]([N]2=C(C)C=C(C)C2=C3C%16=CC=C(C=C%16)C#CC5=CC4=C(N=C%10[N]9=C(N=C(N%13C%14=N%15)C%12=C%14C=CC=C%12)C%11=C%10C=CC=C%11)N([Zn]9%13[N]8=C%15C6=C7C=CC=C6)C(N=C78)=C4C=C5)(F)N1C3=C(C)C=C1C,686,695,DMSO,74131.02413,0.06,,0.88,DMSO,,,,,,,10.1016/j.dyepig.2014.06.003
929,2_545,Pc-BODIPY-2,TRUE,A:             CI.CI.F[B]([N]2=C(C)C=C(C)C2=C3C4=CC=C(C#CC6=CC5=C(N=C%11[N]%10=C(N=C(N%14C%15=N%16)C%13=C%15C=CC=C%13)C%12=C%11C=CC=C%12)N([Zn]%10%14[N]9=C%16C7=C8C=CC=C7)C(N=C89)=C5C=C6)C=C4)(F)N1C3=C(C)C=C1C.F[B]([N]%18=C(C)C=C(C)C%18=C%19C%20=CC=C(C=C%20)C#CC)(F)N%17C%19=C(C)C=C%17C                                 B:       CI.F[B]2(F)[N]1=C(C)C=C(C)C1=C(C4=CC=C(C#CC)C=C4)C3=C(C)C=C(C)N23.F[B]([N]6=C(C)C=C(C)C6=C7C8=CC=C(C=C8)C#CC)(F)N5C7=C(C)C=C5C.IC%10=CC9=C(N=C%15[N]%14=C(N=C(N%18C%19=N%20)C%17=C%19C=CC=C%17)C%16=C%15C=CC=C%16)N([Zn]%14%18[N]%13=C%20C%11=C%12C=CC=C%11)C(N=C%12%13)=C9C=C%10                                                                                                                                                                                                                                                                                                                                                                                                                                                             ,692,701,DMSO,114815.3621,0.07,,0.92,DMSO,,,,,,,10.1016/j.dyepig.2014.06.003
930,2_546,Pc-BODIPY-3,TRUE,CI.F[B]2(F)[N]1=C(C)C=C(C)C1=C(C4=CC=C(C#CC)C=C4)C3=C(C)C=C(C)N23.F[B]([N]6=C(C)C=C(C)C6=C7C8=CC=C(C#CC%10=CC9=C(N=C%15[N]%14=C(N=C(N%18C%19=N%20)C%17=C%19C=CC=C%17)C%16=C%15C=CC=C%16)N([Zn]%14%18[N]%13=C%20C%11=C%12C=CC=C%11)C(N=C%12%13)=C9C=C%10)C=C8)(F)N5C7=C(C)C=C5C.F[B]([N]%22=C(C)C=C(C)C%22=C%23C%24=CC=C(C=C%24)C#CC)(F)N%21C%23=C(C)C=C%21C,695,704,DMSO,97723.7221,0.07,,0.98,DMSO,,,,,,,10.1016/j.dyepig.2014.06.003
931,2_547,Pc-BODIPY-4,TRUE,F[B]2(F)[N]1=C(C)C=C(C)C1=C(C4=CC=C(C=C4)C#CC)C3=C(C)C=C(C)N23.F[B]6(F)[N]5=C(C)C=C(C)C5=C(C8=CC=C(C#CC)C=C8)C7=C(C)C=C(C)N67.F[B]([N]%10=C(C)C=C(C)C%10=C%11C%12=CC=C(C#CC%14=CC%13=C(N=C%19[N]%18=C(N=C(N%22C%23=N%24)C%21=C%23C=CC=C%21)C%20=C%19C=CC=C%20)N([Zn]%18%22[N]%17=C%24C%15=C%16C=CC=C%15)C(N=C%16%17)=C%13C=C%14)C=C%12)(F)N9C%11=C(C)C=C9C.F[B]([N]%26=C(C)C=C(C)C%26=C%27C%28=CC=C(C=C%28)C#CC)(F)N%25C%27=C(C)C=C%25C,698,709,DMSO,109647.8196,0.09,,0.69,DMSO,,,,,,,10.1016/j.dyepig.2014.06.003
932,2_548,Iodo-Pc,TRUE,CI.CI.CI.IC2=CC1=C(N=C7[N]6=C(N=C(N%10C%11=N%12)C9=C%11C=CC=C9)C8=C7C=CC=C8)N([Zn]6%10[N]5=C%12C3=C4C=CC=C3)C(N=C45)=C1C=C2,680,691,DMSO,120226.4435,0.09,,0.54,DMSO,,,,,,,10.1016/j.dyepig.2014.06.003
933,2_549,BB-1,FALSE,F[B]([N]2=C(C)C(C([C@@]5=[C@](C)C=[C@](C)N5[B](F)6F)=C4[N]6=C(C)C=C4C)=C(C)C2=C3C)(F)N1C3=C(C)C([H])=C1C,509,518,Toluene,169000,0.804,,0.16,MeOH,,,,,,,10.1021/acs.jpcc.7b10213
934,2_549,BB-1,FALSE,F[B]([N]2=C(C)C(C([C@@]5=[C@](C)C=[C@](C)N5[B](F)6F)=C4[N]6=C(C)C=C4C)=C(C)C2=C3C)(F)N1C3=C(C)C([H])=C1C,505,525,THF,169000,0.063,,0.85,MeOH,,,,,,,10.1021/acs.jpcc.7b10213
935,2_549,BB-1,FALSE,F[B]([N]2=C(C)C(C([C@@]5=[C@](C)C=[C@](C)N5[B](F)6F)=C4[N]6=C(C)C=C4C)=C(C)C2=C3C)(F)N1C3=C(C)C([H])=C1C,506,527,DCM,167000,,,1.41,MeOH,,,,,,,10.1021/acs.jpcc.7b10213
936,2_549,BB-1,FALSE,F[B]([N]2=C(C)C(C([C@@]5=[C@](C)C=[C@](C)N5[B](F)6F)=C4[N]6=C(C)C=C4C)=C(C)C2=C3C)(F)N1C3=C(C)C([H])=C1C,501,,ACN,158000,0.001,,0.41,MeOH,,,,,,,10.1021/acs.jpcc.7b10213
937,2_550,BB-3,FALSE,F[B]([N]2=C(C)C(C([C@@]5=[C@](C)C=[C@](C)N5[B](F)6F)=C4[N]6=C(C)C=C4C)=C(C)C2=C3O[N+](C7=CC=C(B(O)O)C=C7)=O)(F)N1C3=C(C)C([H])=C1C,513,545,Toluene,143000,0.033,,0.55,MeOH,,,,,,,10.1021/acs.jpcc.7b10213
938,2_550,BB-3,FALSE,F[B]([N]2=C(C)C(C([C@@]5=[C@](C)C=[C@](C)N5[B](F)6F)=C4[N]6=C(C)C=C4C)=C(C)C2=C3O[N+](C7=CC=C(B(O)O)C=C7)=O)(F)N1C3=C(C)C([H])=C1C,511,,DCM,144000,,,0.25,MeOH,,,,,,,10.1021/acs.jpcc.7b10213
939,2_551,BB-4,FALSE,F[B]([N]2=C(C)C(C([C@@]5=[C@](C)C=[C@](C)N5[B](F)6F)=C4[N]6=C(C)C=C4C)=C(C)C2=C3[H])(F)N1C3=C(C)C([H])=C1C,510,526,Toluene,79000,0.628,,0.18,MeOH,,,,,,,10.1021/acs.jpcc.7b10213
940,2_551,BB-4,FALSE,F[B]([N]2=C(C)C(C([C@@]5=[C@](C)C=[C@](C)N5[B](F)6F)=C4[N]6=C(C)C=C4C)=C(C)C2=C3[H])(F)N1C3=C(C)C([H])=C1C,508,525,DCM,76000,,,0.86,MeOH,,,,,,,10.1021/acs.jpcc.7b10213
941,2_551,BB-4,FALSE,F[B]([N]2=C(C)C(C([C@@]5=[C@](C)C=[C@](C)N5[B](F)6F)=C4[N]6=C(C)C=C4C)=C(C)C2=C3[H])(F)N1C3=C(C)C([H])=C1C,504,,ACN,72000,0.001,,0.14,MeOH,,,,,,,10.1021/acs.jpcc.7b10213
942,2_552,isoindole BODIPYs 1a,FALSE,F[B]2(F)[N]1=C(C5=CC=CN5)C4=C(C=CC=C4)C1=CC3=CC=CN23,570,599,dichloromethane,4.65,0.8,,,,,-5.28,-3.59,-1.69,electrochemistry,,10.1021/acs.joc.6b00414
943,2_552,isoindole BODIPYs 1a,FALSE,F[B]2(F)[N]1=C(C5=CC=CN5)C4=C(C=CC=C4)C1=CC3=CC=CN23,570,599,dichloromethane,4.65,0.8,,,,,-5.07,-2.55,-2.52,theoretical,,10.1021/acs.joc.6b00414
944,2_553,isoindole BODIPYs 5a,FALSE,F[B]2(F)[N]1=C(C5=CC=CN5)C4=C(C=CC=C4)C1=CC3=C(C)C=C(C)N23,602,621,dichloromethane,4.93,0.87,,,,,-5.06,-3.36,-1.7,electrochemistry,,10.1021/acs.joc.6b00414
945,2_553,isoindole BODIPYs 5a,FALSE,F[B]2(F)[N]1=C(C5=CC=CN5)C4=C(C=CC=C4)C1=CC3=C(C)C=C(C)N23,602,621,dichloromethane,4.93,0.87,,,,,-4.86,-2.42,-2.44,theoretical,,10.1021/acs.joc.6b00414
946,2_554,isoindole BODIPYs 1c,FALSE,F[B]2(F)[N]1=C(C5=C(C)C=C(C)N5)C4=C(C=CC=C4)C1=CC3=C(C)C=C(C)N23,609,631,dichloromethane,4.87,0.61,,,,,-4.96,-3.31,-1.65,electrochemistry,,10.1021/acs.joc.6b00414
947,2_554,isoindole BODIPYs 1c,FALSE,F[B]2(F)[N]1=C(C5=C(C)C=C(C)N5)C4=C(C=CC=C4)C1=CC3=C(C)C=C(C)N23,609,631,dichloromethane,4.87,0.61,,,,,-4.76,-2.36,-2.4,theoretical,,10.1021/acs.joc.6b00414
948,2_555,isoindole BODIPYs 1d,FALSE,F[B]2(F)[N]1=C(C5=C(C)C(CC)=C(C)N5)C4=C(C=CC=C4)C1=CC3=C(C)C(CC)=C(C)N23,629,650,dichloromethane,4.91,0.73,,,,,-4.86,-3.13,-1.73,electrochemistry,,10.1021/acs.joc.6b00414
949,2_556,isoindole BODIPY 7f,FALSE,F[B]2(F)[N]1=C(C5=C(C)C(CC)=C(C)N5)C4=C(C=CC=C4)C1=CC3=C(C)C(CC)=C(/C=C/C6=CC=C(N(C)C)C=C6)N23,725,770,dichloromethane,4.8,0.13,,,,,-4.65,-3.31,-1.34,electrochemistry,,10.1021/acs.joc.6b00414
950,2_557,isoindole BODIPY 5e,FALSE,F[B]2(F)[N]1=C(C5=C(C)C(CC)=C(C)N5)C4=C(C=CC=C4)C1=CC3=C(C)C=C(C)N23,616,640,dichloromethane,4.95,0.86,,,,,-4.73,-2.34,-2.39,theoretical,,10.1021/acs.joc.6b00414
951,2_558,isoindole BODIPY 5h,FALSE,F[B]2(F)[N]1=C(C5=CC=CN5)C4=C(C=CC=C4)C1=CC3=C(C)C(CC)=C(C)N23,616,634,dichloromethane,4.45,0.66,,,,,-4.81,-2.39,-2.42,theoretical,,10.1021/acs.joc.6b00414
952,2_559,C-1,FALSE,F[B]2(F)[N]1=C(C)C(I)=C(C)C1=C(C4=CC=C(OS(C5=C([N+]([O-])=O)C=C([N+]([O-])=O)C=C5)(=O)=O)C=C4)C3=C(C)C(I)=C(C)N23,533,556,CH3CN,91000,0.017,,0.74,CH3CN,,,,,,,10.1021/acs.joc.5b00557
953,2_559,C-1,FALSE,F[B]2(F)[N]1=C(C)C(I)=C(C)C1=C(C4=CC=C(OS(C5=C([N+]([O-])=O)C=C([N+]([O-])=O)C=C5)(=O)=O)C=C4)C3=C(C)C(I)=C(C)N23,533,556,CH3CN,91000,0.017,,0.37,DCM,,,,,,,10.1021/acs.joc.5b00557
954,2_559,C-1,FALSE,F[B]2(F)[N]1=C(C)C(I)=C(C)C1=C(C4=CC=C(OS(C5=C([N+]([O-])=O)C=C([N+]([O-])=O)C=C5)(=O)=O)C=C4)C3=C(C)C(I)=C(C)N23,533,556,CH3CN,91000,0.017,,0.59,toluene,,,,,,,10.1021/acs.joc.5b00557
955,2_560,C-2,FALSE,F[B]2(F)[N]1=C(/C=C/C4=CC=C(OS(C6=CC=C([N+]([O-])=O)C=C6[N+]([O-])=O)(=O)=O)C=C4)C(I)=C(C)C1=C(C5=CC=CC=C5)C3=C(C)C(I)=C(C)N23,576,594,CH3CN,88800,0.034,,0.2,CH3CN,,,,,,,10.1021/acs.joc.5b00557
956,2_560,C-2,FALSE,F[B]2(F)[N]1=C(/C=C/C4=CC=C(OS(C6=CC=C([N+]([O-])=O)C=C6[N+]([O-])=O)(=O)=O)C=C4)C(I)=C(C)C1=C(C5=CC=CC=C5)C3=C(C)C(I)=C(C)N23,576,594,CH3CN,88800,0.034,,0.13,DCM,,,,,,,10.1021/acs.joc.5b00557
957,2_560,C-2,FALSE,F[B]2(F)[N]1=C(/C=C/C4=CC=C(OS(C6=CC=C([N+]([O-])=O)C=C6[N+]([O-])=O)(=O)=O)C=C4)C(I)=C(C)C1=C(C5=CC=CC=C5)C3=C(C)C(I)=C(C)N23,576,594,CH3CN,88800,0.034,,0.29,toluene,,,,,,,10.1021/acs.joc.5b00557
958,2_561,BODIPY 5,FALSE,F[B-]2(F)[N+]1=C(C)C=C(C)C1=C(C4=CC=C(C(OC)=O)C=C4)C3=C(C)C=C(C)N23,503,513,dichloromethane,63095.73445,0.56,,0.18,DMSO,,,,,,,10.1016/j.bmc.2013.07.017
959,2_561,BODIPY 5,FALSE,F[B-]2(F)[N+]1=C(C)C=C(C)C1=C(C4=CC=C(C(OC)=O)C=C4)C3=C(C)C=C(C)N23,502,512,THF,64565.4229,0.43,,0.18,DMSO,,,,,,,10.1016/j.bmc.2013.07.017
960,2_562,BODIPY 7,FALSE,F[B-]2(F)[N+]1=C(C)C=C(C)C1=C(C4=CC=CS4)C3=C(C)C=C(C)N23,513,520,dichloromethane,53703.17964,0.11,,0.1,DMSO,,,,,,,10.1016/j.bmc.2013.07.017
961,2_562,BODIPY 7,FALSE,F[B-]2(F)[N+]1=C(C)C=C(C)C1=C(C4=CC=CS4)C3=C(C)C=C(C)N23,513,520,THF,69183.09709,0.09,,0.1,DMSO,,,,,,,10.1016/j.bmc.2013.07.017
962,2_563,BODIPY 8,FALSE,F[B-]2(F)[N+]1=C(C)C=C(C)C1=C(C4=CC=C(C5=CC=CS5)S4)C3=C(C)C=C(C)N23,515,523,dichloromethane,21877.61624,0.03,,0.29,DMSO,,,,,,,10.1016/j.bmc.2013.07.017
963,2_563,BODIPY 8,FALSE,F[B-]2(F)[N+]1=C(C)C=C(C)C1=C(C4=CC=C(C5=CC=CS5)S4)C3=C(C)C=C(C)N23,515,520,THF,37153.52291,0.04,,0.29,DMSO,,,,,,,10.1016/j.bmc.2013.07.017
964,2_564,BODIPY 10,FALSE,F[B-]2(F)[N+]1=C(C)C=C(C)C1=C(C4=CC=C(C5=CC=C(Br)S5)S4)C3=C(C)C=C(C)N23,516,522,dichloromethane,45708.81896,0.06,,0.38,DMSO,,,,,,,10.1016/j.bmc.2013.07.017
965,2_564,BODIPY 10,FALSE,F[B-]2(F)[N+]1=C(C)C=C(C)C1=C(C4=CC=C(C5=CC=C(Br)S5)S4)C3=C(C)C=C(C)N23,515,524,THF,57543.99373,0.06,,0.38,DMSO,,,,,,,10.1016/j.bmc.2013.07.017
966,2_565,BODIPY 1a,FALSE,F[B-]2(F)[N+]1=C(C)C(I)=C(C)C1=C(C4=CC=CC=C4)C3=C(C)C(I)=C(C)N23,534,550,dichloromethane,93325.43008,0.05,,0.76,DMSO,,,,,,,10.1016/j.bmc.2013.07.017
967,2_565,BODIPY 1a,FALSE,F[B-]2(F)[N+]1=C(C)C(I)=C(C)C1=C(C4=CC=CC=C4)C3=C(C)C(I)=C(C)N23,533,546,THF,83176.37711,0.04,,0.76,DMSO,,,,,,,10.1016/j.bmc.2013.07.017
968,2_566,BODIPY 2a,FALSE,F[B-]2(F)[N+]1=C(C)C(I)=C(C)C1=C(C4=CC(OC)=CC(OC)=C4)C3=C(C)C(I)=C(C)N23,535,549,dichloromethane,77624.71166,0.07,,0.4,DMSO,,,,,,,10.1016/j.bmc.2013.07.017
969,2_566,BODIPY 2a,FALSE,F[B-]2(F)[N+]1=C(C)C(I)=C(C)C1=C(C4=CC(OC)=CC(OC)=C4)C3=C(C)C(I)=C(C)N23,534,547,THF,87096.359,0.05,,0.4,DMSO,,,,,,,10.1016/j.bmc.2013.07.017
970,2_567,BODIPY 3a,FALSE,F[B-]2(F)[N+]1=C(C)C(I)=C(C)C1=C(C4=CC(C(C)(C)C)=CC(C(C)(C)C)=C4)C3=C(C)C(I)=C(C)N23,531,546,dichloromethane,69183.09709,0.06,,0.32,DMSO,,,,,,,10.1016/j.bmc.2013.07.017
971,2_567,BODIPY 3a,FALSE,F[B-]2(F)[N+]1=C(C)C(I)=C(C)C1=C(C4=CC(C(C)(C)C)=CC(C(C)(C)C)=C4)C3=C(C)C(I)=C(C)N23,531,546,THF,67608.29754,0.04,,0.32,DMSO,,,,,,,10.1016/j.bmc.2013.07.017
972,2_568,BODIPY 4a,FALSE,F[B-]2(F)[N+]1=C(C)C(I)=C(C)C1=C(C4=CC(OC)=C(OC)C=C4)C3=C(C)C(I)=C(C)N23,534,546,dichloromethane,91201.08394,0.05,,0.38,DMSO,,,,,,,10.1016/j.bmc.2013.07.017
973,2_568,BODIPY 4a,FALSE,F[B-]2(F)[N+]1=C(C)C(I)=C(C)C1=C(C4=CC(OC)=C(OC)C=C4)C3=C(C)C(I)=C(C)N23,532,546,THF,75857.7575,0.04,,0.38,DMSO,,,,,,,10.1016/j.bmc.2013.07.017
974,2_569,BODIPY 5a,FALSE,F[B-]2(F)[N+]1=C(C)C(I)=C(C)C1=C(C4=CC=C(C(OC)=O)C=C4)C3=C(C)C(I)=C(C)N23,537,554,dichloromethane,66069.3448,0.05,,0.27,DMSO,,,,,,,10.1016/j.bmc.2013.07.017
975,2_569,BODIPY 5a,FALSE,F[B-]2(F)[N+]1=C(C)C(I)=C(C)C1=C(C4=CC=C(C(OC)=O)C=C4)C3=C(C)C(I)=C(C)N23,536,555,THF,58884.36554,0.04,,0.27,DMSO,,,,,,,10.1016/j.bmc.2013.07.017
976,2_570,BODIPY 6a,FALSE,F[B-]2(F)[N+]1=C(C)C(I)=C(C)C1=C(C4=CC=C(Br)C=C4)C3=C(C)C(I)=C(C)N23,537,554,dichloromethane,64565.4229,0.04,,0.31,DMSO,,,,,,,10.1016/j.bmc.2013.07.017
977,2_570,BODIPY 6a,FALSE,F[B-]2(F)[N+]1=C(C)C(I)=C(C)C1=C(C4=CC=C(Br)C=C4)C3=C(C)C(I)=C(C)N23,536,553,THF,69183.09709,0.03,,0.31,DMSO,,,,,,,10.1016/j.bmc.2013.07.017
978,2_571,BODIPY 7a,FALSE,F[B-]2(F)[N+]1=C(C)C(I)=C(C)C1=C(C4=CC=CS4)C3=C(C)C(I)=C(C)N23,548,561,dichloromethane,23442.28815,0.04,,0.02,DMSO,,,,,,,10.1016/j.bmc.2013.07.017
979,2_571,BODIPY 7a,FALSE,F[B-]2(F)[N+]1=C(C)C(I)=C(C)C1=C(C4=CC=CS4)C3=C(C)C(I)=C(C)N23,548,561,THF,47863.00923,0.03,,0.02,DMSO,,,,,,,10.1016/j.bmc.2013.07.017
980,2_572,BODIPY 8a,FALSE,F[B-]2(F)[N+]1=C(C)C(I)=C(C)C1=C(C4=CC=C(C5=CC=CS5)S4)C3=C(C)C(I)=C(C)N23,551,565,dichloromethane,38904.5145,0.01,,0.27,DMSO,,,,,,,10.1016/j.bmc.2013.07.017
981,2_572,BODIPY 8a,FALSE,F[B-]2(F)[N+]1=C(C)C(I)=C(C)C1=C(C4=CC=C(C5=CC=CS5)S4)C3=C(C)C(I)=C(C)N23,550,566,THF,39810.71706,0.01,,0.27,DMSO,,,,,,,10.1016/j.bmc.2013.07.017
982,2_573,BODIPY 9a,FALSE,F[B-]2(F)[N+]1=C(C)C(I)=C(C)C1=C(C4=CC=C(Br)S4)C3=C(C)C(I)=C(C)N23,553,570,dichloromethane,117489.7555,0.03,,0.1,DMSO,,,,,,,10.1016/j.bmc.2013.07.017
983,2_573,BODIPY 9a,FALSE,F[B-]2(F)[N+]1=C(C)C(I)=C(C)C1=C(C4=CC=C(Br)S4)C3=C(C)C(I)=C(C)N23,553,571,THF,112201.8454,0.02,,0.1,DMSO,,,,,,,10.1016/j.bmc.2013.07.017
984,2_574,BODIPY 10a,FALSE,F[B-]2(F)[N+]1=C(C)C(I)=C(C)C1=C(C4=CC=C(C5=CC=C(Br)S5)S4)C3=C(C)C(I)=C(C)N23,552,569,dichloromethane,74131.02413,0.01,,0.34,DMSO,,,,,,,10.1016/j.bmc.2013.07.017
985,2_574,BODIPY 10a,FALSE,F[B-]2(F)[N+]1=C(C)C(I)=C(C)C1=C(C4=CC=C(C5=CC=C(Br)S5)S4)C3=C(C)C(I)=C(C)N23,551,571,THF,64565.4229,0.01,,0.34,DMSO,,,,,,,10.1016/j.bmc.2013.07.017
986,2_575,BODIPY11a,FALSE,F[B-]2(F)[N+]1=C(C)C(I)=C(C)C1=C(C4=C(F)C(F)=C(F)C(F)=C4F)C3=C(C)C(I)=C(C)N23,558,576,dichloromethane,63095.73445,0.04,,0.19,DMSO,,,,,,,10.1016/j.bmc.2013.07.017
987,2_575,BODIPY11a,FALSE,F[B-]2(F)[N+]1=C(C)C(I)=C(C)C1=C(C4=C(F)C(F)=C(F)C(F)=C4F)C3=C(C)C(I)=C(C)N23,557,571,THF,57543.99373,0.03,,0.19,DMSO,,,,,,,10.1016/j.bmc.2013.07.017
988,2_576,BODIPY 2,FALSE,CC3=CC(C)=[N]2[B](F)(F)N1C(C(C4=CC=C(C=C4)OCCCN(C)C)=C23)=C(C)C=C1C,498,505,methanol,,0.69,,0.02,methanol,,,,,,,10.1002/cmdc.202000529
989,2_576,BODIPY 2,FALSE,CC3=CC(C)=[N]2[B](F)(F)N1C(C(C4=CC=C(C=C4)OCCCN(C)C)=C23)=C(C)C=C1C,499,506,ethanol,,0.61,,0.02,ethanol,,,,,,,10.1002/cmdc.202000529
990,2_577,BODIPY 3,FALSE,CC3=C(I)C(C)=[N]2[B](F)(F)N1C(C(C4=CC=C(C=C4)OCCCN(C)C)=C23)=C(C)C(I)=C1C,530,544,methanol,,0.02,,0.9,methanol,,,,,,,10.1002/cmdc.202000529
991,2_577,BODIPY 3,FALSE,CC3=C(I)C(C)=[N]2[B](F)(F)N1C(C(C4=CC=C(C=C4)OCCCN(C)C)=C23)=C(C)C(I)=C1C,532,544,ethanol,,0.02,,0.69,ethanol,,,,,,,10.1002/cmdc.202000529
992,2_578,BODIPY 4,FALSE,CC3=CC(C)=[N]2[B](F)(F)N1C(C(C4=CC=C(C=C4)OCCC[N+](C)(C)C)=C23)=C(C)C=C1C.[I-],498,504,methanol,,0.7,,0.02,methanol,,,,,,,10.1002/cmdc.202000529
993,2_578,BODIPY 4,FALSE,CC3=CC(C)=[N]2[B](F)(F)N1C(C(C4=CC=C(C=C4)OCCC[N+](C)(C)C)=C23)=C(C)C=C1C.[I-],499,506,ethanol,,0.6,,0.02,ethanol,,,,,,,10.1002/cmdc.202000529
994,2_579,BODIPY 5,FALSE,CC3=C(I)C(C)=[N]2[B](F)(F)N1C(C(C4=CC=C(C=C4)OCCC[N+](C)(C)C)=C23)=C(C)C(I)=C1C.[I-],530,543,methanol,,0.02,,0.94,methanol,,,,,,,10.1002/cmdc.202000529
995,2_579,BODIPY 5,FALSE,CC3=C(I)C(C)=[N]2[B](F)(F)N1C(C(C4=CC=C(C=C4)OCCC[N+](C)(C)C)=C23)=C(C)C(I)=C1C.[I-],532,546,ethanol,,0.02,,0.97,ethanol,,,,,,,10.1002/cmdc.202000529
996,2_580,[Zn(L1–3)Cl2]  2,TRUE,Cl[Zn]3([N]2=CC=CC=C2C[N](CC5=CC=C(C(C7=C(C)C=C(C)N7[B](F)8F)=C6[N]8=C(C)C=C6C)C=C5)3C4)(Cl)[N]1=C4C=CC=C1,500,507,1.0% DMSO–DPBS buffer (pH = 7.4),43560,,,0.19,DMSO,,-5.57,-2.55,-3.02,theoretical,"262, 339, 500",10.1039/d0dt03342a
997,2_581,[Zn(L1–3)Cl2] 3,TRUE,Cl[Zn]3([N]2=CC=CC=C2C[N](CC5=CC=C(C(C7=C(C)C(I)=C(C)N7[B](F)8F)=C6[N]8=C(C)C(I)=C6C)C=C5)3C4)(Cl)[N]1=C4C=CC=C1,535,560,1.0% DMSO–DPBS buffer (pH = 7.4),33940,,,0.71,DMSO,,-5.77,-2.84,-2.93,theoretical,"253, 385, 535",10.1039/d0dt03342a
998,2_582,cis-1,TRUE,F[B@]2(F)N1C=CC=C1C([Pt](Br)([P](CC)(CC)CC)[P](CC)(CC)CC)=C3[N]2=CC=C3,476,,CH2Cl2,58600,,,,,,-5.64,-2.32,-3.32,theoretical,"278, 303, 349, 476", 10.1021/acs.inorgchem.5b01969
999,2_583,cis-2,TRUE,F[B@]2(F)N1C=CC=C1C([Pt](Br)([P](C6=CC=CC=C6)(C7=CC=CC=C7)C5=CC=CC=C5)[P](C8=CC=CC=C8)(C9=CC=CC=C9)C4=CC=CC=C4)=C3[N]2=CC=C3,481,,CH2Cl2,52900,,,,,,-5.81,-2.32,-3.49,theoretical,"274, 354, 481", 10.1021/acs.inorgchem.5b01969
1000,2_584,trans-1,TRUE,F[B@]2(F)N1C=CC=C1C([Pt]([P](CC)(CC)CC)([P](CC)(CC)CC)Br)=C3[N]2=CC=C3,468,,CH2Cl2,52600,,,,,,-5.78,-2.42,-3.36,theoretical,"254, 322, 359, 468", 10.1021/acs.inorgchem.5b01969
1001,2_585,trans-2,TRUE,F[B@]2(F)N1C=CC=C1C([Pt]([P](C5=CC=CC=C5)(C6=CC=CC=C6)C4=CC=CC=C4)([P](C8=CC=CC=C8)(C9=CC=CC=C9)C7=CC=CC=C7)Br)=C3[N]2=CC=C3,477,,CH2Cl2,44500,,,,,,-5.72,-2.41,-3.31,theoretical,"253, 320, 355, 477", 10.1021/acs.inorgchem.5b01969
1002,2_586,B-1,FALSE,IC4=C(C)C3=C(C2=C(C)C(I)=C(C)N2[B](F)(F)[N]3=C4C)C1=CC=C(OCC5=CN(CCOC6=CC=C(C8=C7C(C)=CC(C)=[N]7[B](F)(F)N9C8=C(C)C=C9C)C=C6)[N][N]5)C=C1,505,554,toluene,89800,0.043,,0.65,Methanol,,,,,,,10.1021/ja405170j
1003,2_587,B-2,FALSE,IC4=C(C)C3=C(C2=C(C)C(C5=CC=C(C7=C6C(C)=CC(C)=[N]6[B](F)(F)N8C7=C(C)C=C8C)C=C5)=C(C)N2[B](F)(F)[N]3=C4C)C1=CC=CC=C1,504,577,toluene,110400,0.128,,0.5,Methanol,,,,,,,10.1021/ja405170j
1004,2_588,B-3,FALSE,IC4=C(C)C3=C(C2=C(C)C(C#CC5=CC=C(C7=C6C(C)=CC(C)=[N]6[B](F)(F)N8C7=C(C)C=C8C)C=C5)=C(C)N2[B](F)(F)[N]3=C4C)C1=CC=CC=C1,506,584,toluene,87800,0.143,,0.67,Methanol,,,,,,,10.1021/ja405170j
1005,2_589,BODIPY 9,FALSE,IC4=C(C)C3=C(C2=C(C)C(I)=C(C)N2[B](F)(F)[N]3=C4C)C1=CC=CC=C1,537,556,toluene,86700,0.036,,0.87,Methanol,,,,,,,10.1021/ja405170j
1006,2_590,BODIPY 13,FALSE,IC4=C(C)C3=C(C2=C(C)C(C5=CC=CC=C5)=C(C)N2[B](F)(F)[N]3=C4C)C1=CC=CC=C1,532,557,toluene,113600,0.127,,0.89,Methanol,,,,,,,10.1021/ja405170j
1007,2_591,BODIPY 14,FALSE,IC4=C(C)C3=C(C2=C(C)C(C#CC5=CC=CC=C5)=C(C)N2[B](F)(F)[N]3=C4C)C1=CC=CC=C1,555,586,toluene,79000,0.145,,0.89,Methanol,,,,,,,10.1021/ja405170j
1008,2_592,ADPM 5,FALSE,C[C@@](C)(C)C(C=C6)=CC=C6C1=C(\N=C3/N=C(C5=CC=CC(N(C)C)=C5)C=C3C4=CC=C([C@@](C)(C)C)C=C4)NC(C2=CC(N(C)C)=CC=C2)=C1,612,,THF,60000,,,0,THF,,-5.44,-3.69,-1.75,electrochemistry,,10.1002/ajoc.201900385
1009,2_593,aza-BODIPY 6,FALSE,C[C@@](C)(C)C(C=C6)=CC=C6C1=C(N=C3[N]7=C(C5=CC=CC(N(C)C)=C5)C=C3C4=CC=C([C@](C)(C)C)C=C4)N([B@@](F)7F)C(C2=CC(N(C)C)=CC=C2)=C1,670,,THF,62000,,,0,THF,,-5.47,-4.03,-1.44,electrochemistry,,10.1002/ajoc.201900385
1010,2_594,brominated aza-BODIPYs 7,FALSE,C[C@@](C)(C)C(C=C6)=CC=C6C1=C(N=C3[N]7=C(C5=CC(N(C)C)=CC=C5Br)C=C3C4=CC=C([C@@](C)(C)C)C=C4)N([B@@](F)7F)C(C2=C(Br)C=CC(N(C)C)=C2)=C1,620,,THF,63000,,,0.36,THF,,5.54,-4.06,9.6,electrochemistry,,10.1002/ajoc.201900385
1011,2_595,brominated aza-BODIPYs 8,FALSE,C[C@@](C)(C)C(C=C6)=CC=C6C1=C(N=C3[N]7=C(C5=CC(N(C)C)=C(Br)C=C5Br)C=C3C4=CC=C([C@@](C)(C)C)C=C4)N([B@@](F)7F)C(C2=C(Br)C=C(Br)C(N(C)C)=C2)=C1,636,,THF,83000,,,0.58,THF,,-5.8,-4.16,-1.64,electrochemistry,,10.1002/ajoc.201900385
1012,2_596,aza-BODIPY dyes 8a,FALSE,F[B-]2(F)N1C(C6=CC=C([H])C=C6)=CC(C5=CC(C8=CC=CC=C8N9CC)=C9C=C5)=C1N=C3[N+]2=C(C7=CC=C([H])C=C7)C=C3C4=CC(C%10=CC=CC=C%10N%11CC)=C%11C=C4,705,818,acetonitrile,30000,0.22,,0.01,acetonitrile,,-5.322,-3.86,-1.462,electrochemistry,,10.1002/chem.201605702
1013,2_596,aza-BODIPY dyes 8a,FALSE,F[B-]2(F)N1C(C6=CC=C([H])C=C6)=CC(C5=CC(C8=CC=CC=C8N9CC)=C9C=C5)=C1N=C3[N+]2=C(C7=CC=C([H])C=C7)C=C3C4=CC(C%10=CC=CC=C%10N%11CC)=C%11C=C4,705,818,acetonitrile,30000,0.22,,0.01,acetonitrile,,-5.297,-3.381,-1.916,theoretical,,10.1002/chem.201605702
1014,2_597,aza-BODIPY dyes 8b,FALSE,F[B-]2(F)N1C(C6=CC=C(Br)C=C6)=CC(C5=CC(C8=CC=CC=C8N9CC)=C9C=C5)=C1N=C3[N+]2=C(C7=CC=C(Br)C=C7)C=C3C4=CC(C%10=CC=CC=C%10N%11CC)=C%11C=C4,653,815,acetonitrile,37000,0.03,,0.7,acetonitrile,,-5.343,-3.899,-1.444,electrochemistry,,10.1002/chem.201605702
1015,2_597,aza-BODIPY dyes 8b,FALSE,F[B-]2(F)N1C(C6=CC=C(Br)C=C6)=CC(C5=CC(C8=CC=CC=C8N9CC)=C9C=C5)=C1N=C3[N+]2=C(C7=CC=C(Br)C=C7)C=C3C4=CC(C%10=CC=CC=C%10N%11CC)=C%11C=C4,653,815,acetonitrile,37000,0.03,,0.7,acetonitrile,,-3.583,-1.05,-2.533,theoretical,,10.1002/chem.201605702
1016,2_598,aza-BODIPY dyes 9a,FALSE,F[B-]2(F)N1C(C6=CC=C([H])C=C6)=C(I)C(C5=CC(C8=CC=CC=C8N9CC)=C9C=C5)=C1N=C3[N+]2=C(C7=CC=C([H])C=C7)C(I)=C3C4=CC(C%10=CC=CC=C%10N%11CC)=C%11C=C4,723,820,acetonitrile,32000,0.03,,0.01,acetonitrile,,-4.082,-2.69,-1.392,electrochemistry,,10.1002/chem.201605702