,index,name,metal_complex,SMILES,max_absorption_peak,max_emission_peak,solvant_spectrum,molar_extinction_coefficient,quantum_yield_fluorescence,max_phosphorescence_peak,quantum_yield_singlet_oxygen,solvant_quantum_yield,energy_level_exited_triplet_state,energy_level_HUMO,energy_level_LUMO,difference_HOMO_and_LUMO,method_for_HOMO/LUMO,all_absoption_peaks,reference_DOI
1690,6_2,4( zinc(II) phthalocyanines),TRUE,ClC1=CC2=C(C=C1OCCCC3=CC=CN=C3)C4=[N]5[Zn]6(N7C(N=C8[N]6=C9C%10=C8C=C(OCCCC%11=CC=CN=C%11)C(Cl)=C%10)=C%12C(C=C(OCCCC%13=CC=CN=C%13)C(Cl)=C%12)=C7N=C25)N(C(C%14=C%15C=C(Cl)C(OCCCC%16=CC=CN=C%16)=C%14)=N9)C%15=N4,676,,THF,103000,,,,,,1.19,-0.58,1.77,electrochemistry,,10.1002_aoc.6076
1691,6_3,3PY-Si,FALSE,C12=N\C3=N/C(C4=C3C=CC=C4)=N\C5=C6C=CC=CC6=C(/N=C7N=C(C8=C\7C=CC=C8)N9)N5[Si](OCCCC%10=CC=CN=C%10)(OCCCC%11=CC=CN=C%11)N/1C9C%12=C2C=CC=C%12,673,682,CHCI3,,0.24,,,,,1.12,-0.65,1.77,electrochemistry,,10.1002_aoc.6214
1692,6_4,4PY-Si,FALSE,C12=N\C3=N/C(C4=C3C=CC=C4)=N\C5=C6C=CC=CC6=C(/N=C7N=C(C8=C\7C=CC=C8)N9)N5[Si](OCCCC%10=CC=NC=C%10)(OCCCC%11=CC=NC=C%11)N/1C9C%12=C2C=CC=C%12,674,683,CHCI3 ,,0.25,,,,,1.24,-0.53,1.77,electrochemistry,,10.1002_aoc.6214
1693,6_5,H2Pc(β-OPB)4  ,FALSE,CC(C(C=C1)=CC=C1OC(C=C2)=CC3=C2/C(N=C3/N=C4C5=C(C=CC=C5)/C(N/4)=N/C6=N/C(C7=C6C=CC=C7)=N\8)=N/C9=C(C=CC=C%10)C%10=C8N9)(C)C.COC%11=CC=C(C(C)(C)C)C=C%11.COC%12=CC=C(C(C)(C)C)C=C%12.COC%13=CC=C(C(C)(C)C)C=C%13,701,709,THF  ,,0.39,,0.13,THF ,,,,,,,10.1016/j.dyepig.2020.108421
1694,6_6,POTBC(β-OPB)4  ,FALSE,CC(C(C=C1)=CC=C1OC(C=C2)=CC3=C2/C(N=C3/N=C4C5=C(C=CC=C5)C(N/46)=C7C8=C(C=CC=C8)C(N79)=N%10)=N/C%11=C(C=CC=C%12)C%12=C%10N%11P96(OC)OC)(C)C.COC%13=CC=C(C(C)(C)C)C=C%13.COC%14=CC=C(C(C)(C)C)C=C%14.COC%15=CC=C(C(C)(C)C)C=C%15,440,665,THF  ,,0.62,,0.41,THF ,,,,,,,10.1016/j.dyepig.2020.108421
1695,6_7,POTBC,FALSE,OP1(N2C3=C4C(C=CC=C4)=C2/N=C5N=C6C7=C\5C=CC=C7)(N8C(C(C=CC=C9)=C9C8=C(C%10=C/%11C=CC=C%10)N1C%11=N/6)=N3)O,440,664,DMF,,0.36,,0.43,DMF,,,,,,,10.1016/j.dyepig.2020.108421
1696,6_8,TiOPc(4) ,TRUE,O=[Ti]1N2/C(C(C=CC=C3)=C3/C2=N/C(C4=C/5C=CC=C4)=NC5=N/6)=N\C7=N/C(C8=C7C=CC=C8)=N\C9=C%10C(C=C(OC%11=CC=C(CCC(O)=O)C=C%11)C=C%10)=C6N91.COC%12=CC=C(CCC(O)=O)C=C%12.COC%13=CC=C(CCC(O)=O)C=C%13.COC%14=CC=C(CCC(O)=O)C=C%14,698,,DMF,,,,,,,-3.9,-4.89,0.99,electrochemistry,,10.1016/j.dyepig.2022.110390
1697,6_9,CoPc(5)  ,TRUE,O=C(O)CCC1=CC=C(C=C1)OC2=CC3=C(/N=C4N=C(/N=C5C6=C(C=CC=C6)/C(N/5[Co]7)=N/C8=N/C(C9=C8C=CC=C9)=N\%10)C%11=C\4C=CC=C%11)N7C%10=C3C=C2.COC%12=CC=C(CCC(O)=O)C=C%12.COC%13=CC=C(CCC(O)=O)C=C%13.COC%14=CC=C(CCC(O)=O)C=C%14,665,,DMF,,,,,,,-3.92,-4.52,0.6,electrochemistry,,10.1016/j.dyepig.2022.110390
1698,6_10,ZnPc(6) ,TRUE,O=C(O)CCC1=CC=C(C=C1)OC2=CC3=C(/N=C4N=C(/N=C5C6=C(C=CC=C6)/C(N/5[Zn]7)=N/C8=N/C(C9=C8C=CC=C9)=N\%10)C%11=C\4C=CC=C%11)N7C%10=C3C=C2.COC%12=CC=C(CCC(O)=O)C=C%12.COC%13=CC=C(CCC(O)=O)C=C%13.COC%14=CC=C(CCC(O)=O)C=C%14,675,,DMF,,,,,,,-3.47,-4.95,1.48,electrochemistry,,10.1016/j.dyepig.2022.110390
1699,6_11,H 2 Pc(7),FALSE,O=C(O)CCC1=CC=C(C=C1)OC2=CC3=C(/N=C4N=C(/N=C5C6=C(C=CC=C6)/C(N/5[2H]7)=N/C8=N/C(C9=C8C=CC=C9)=N\%10)C%11=C\4C=CC=C%11)N7C%10=C3C=C2.COC%12=CC=C(CCC(O)=O)C=C%12.COC%13=CC=C(CCC(O)=O)C=C%13.COC%14=CC=C(CCC(O)=O)C=C%14,669,,DMF,,,,,,,-3.63,-5.03,1.4,electrochemistry,,10.1016/j.dyepig.2022.110390
1700,6_12,ZnPc-DOX conjugate 6,FALSE,O=C(N[C@@H]1[C@@H](O)[C@H](C)O[C@@H](O[C@H]2C[C@@](C(CO)=O)(O)CC3=C(O)C(C(C4=CC=CC(OC)=C4C5=O)=O)=C5C(O)=C32)C1)CCC(C=C6)=CC=C6OC7=CC=CC8=C7C(N9C8=C%10)=NC(C%11=C%12C=CC=C%11)=[N]%13C%12=NC%14=C(C=CC=C%15)C%15=C%16N%14[Zn@]9%13[N]%17=C%10C%18=C(C=CC=C%18)C%17=N%16,674,684,DMF,181970,0.12,,0.4,DMF,,,,,,,10.1016/j.ejmech.2016.12.056
1701,6_13, transesterificated ZnPc’s 3,TRUE,[H]C(C(OCCCCC)=O)OC(C=C1)=CC2=C1/C(N=C2/N=C3/C4=C/5C=CC=C4)=N/C6=C(C=CC=C7)C7=C8N6[Zn]N3C5=N/C9=N/C(C%10=C9C=CC=C%10)=N\8.COC([H])C(OCCCCC)=O.COC([H])C(OCCCCC)=O.COC(C(OCCCCC)=O)[H],690,698,DMSO,102329,0.12,,0.97,DMSO,,,,,,,10.1016/j.ica.2017.07.053
1702,6_14, transesterificated ZnPc’s 4,TRUE,CC(C(OCCCCC)=O)OC(C=C1)=CC2=C1/C(N=C2/N=C3/C4=C/5C=CC=C4)=N/C6=C(C=CC=C7)C7=C8N6[Zn]N3C5=N/C9=N/C(C%10=C9C=CC=C%10)=N\8.COC(C)C(OCCCCC)=O.COC(C)C(OCCCCC)=O.COC(C(OCCCCC)=O)C,687,699,DMSO,131825,0.14,,0.83,DMSO,,,,,,,10.1016/j.ica.2017.07.053
1703,6_15,tetra-carboxylate ZnPc’s 5,TRUE,[H]C(C(O)=O)OC(C=C1)=CC2=C1/C(N=C2/N=C3/C4=C/5C=CC=C4)=N/C6=C(C=CC=C7)C7=C8N6[Zn]N3C5=N/C9=N/C(C%10=C9C=CC=C%10)=N\8.COC([H])C(O)=O.COC([H])C(O)=O.COC(C(O)=O)[H],680,690,DMSO,22908,0.08,,0.93,DMSO,,,,,,,10.1016/j.ica.2017.07.053
1704,6_16,tetra-carboxylate ZnPc’s 6,TRUE,CC(C(O)=O)OC(C=C1)=CC2=C1/C(N=C2/N=C3/C4=C/5C=CC=C4)=N/C6=C(C=CC=C7)C7=C8N6[Zn]N3C5=N/C9=N/C(C%10=C9C=CC=C%10)=N\8.COC(C)C(O)=O.COC(C)C(O)=O.COC(C(O)=O)C,680,691,DMSO,33884,0.14,,0.84,DMSO,,,,,,,10.1016/j.ica.2017.07.053
1705,6_17,free Pc’s 7,FALSE,[H]C(C(OCCCCC)=O)OC(C=C1)=CC2=C1/C(N=C2/N=C3C4=C(C=CC=C4)/C(N/3)=N/C5=N/C(C6=C5C=CC=C6)=N\7)=N/C8=C(C=CC=C9)C9=C7N8.COC([H])C(OCCCCC)=O.COC([H])C(OCCCCC)=O.COC(C(OCCCCC)=O)[H],707,717,DMSO,4365,0.1,,0.01,DMSO,,,,,,,10.1016/j.ica.2017.07.053
1706,6_18,free Pc’s 8,FALSE,CC(C(OCCCCC)=O)OC(C=C1)=CC2=C1/C(N=C2/N=C3C4=C(C=CC=C4)/C(N/3)=N/C5=N/C(C6=C5C=CC=C6)=N\7)=N/C8=C(C=CC=C9)C9=C7N8.COC(C)C(OCCCCC)=O.COC(C)C(OCCCCC)=O.COC(C(OCCCCC)=O)C,711,718,DMSO,5888,0.14,,0.02,DMSO,,,,,,,10.1016/j.ica.2017.07.053
1707,6_19, TcPc’s 9 ,FALSE,[H]C(C(O)=O)OC(C=C1)=CC2=C1/C(N=C2/N=C3C4=C(C=CC=C4)/C(N/3)=N/C5=N/C(C6=C5C=CC=C6)=N\7)=N/C8=C(C=CC=C9)C9=C7N8.COC([H])C(O)=O.COC([H])C(O)=O.COC(C(O)=O)[H],670,713,DMSO,63095,0.09,,0.08,DMSO,,,,,,,10.1016/j.ica.2017.07.053
1708,6_20, TcPc’s 10,FALSE,CC(C(O)=O)OC(C=C1)=CC2=C1/C(N=C2/N=C3C4=C(C=CC=C4)/C(N/3)=N/C5=N/C(C6=C5C=CC=C6)=N\7)=N/C8=C(C=CC=C9)C9=C7N8.COC(C)C(O)=O.COC(C)C(O)=O.COC(C(O)=O)C,671,713,DMSO,79432,0.12,,0.05,DMSO,,,,,,,10.1016/j.ica.2017.07.053
1709,6_21,Pc 3 ,FALSE,COCC(F)(F)F.COCC(F)(F)F.COCC(F)(F)F.COCC(F)(F)F.C1(N2C(C3=C1C=CC=C3)=N4)=NC5=[N]6C(C7=C5C=CC=C7)=NC(N8[HH]629)=C%10C=CC=CC%10=C8N=C%11[N]9=C4C%12=C%11C=CC=C%12,697,,CHCl3 ,,,,,,,6.03,3.89,2.14,theoretical,,10.1016/j.jfluchem.2017.08.011
1710,6_22,Pc 4,TRUE,COCC(F)(F)F.COCC(F)(F)F.COCC(F)(F)F.COCC(F)(F)F.C1(N2C(C3=C1C=CC=C3)=N4)=NC5=[N]6C(C7=C5C=CC=C7)=NC(N8[Cu+2]629)=C%10C=CC=CC%10=C8N=C%11[N]9=C4C%12=C%11C=CC=C%12,678,,CHCl3 ,,,,,,,6.07,3.98,2.09,theoretical,,10.1016/j.jfluchem.2017.08.011
1711,6_23,2a,TRUE,CN(C)C1=CC(OCC(COC2=CC=CC(N(C)C)=C2)OC3=CC4=C(C5=NC(C6=C7C=CC=C6)=[N]8C7=NC(N9%10)=C%11C=CC=CC%11=C%10N=C%12C(C=CC=C%13)=C%13C%14=[N]%12[Zn]89N5C4=N%14)C=C3)=CC=C1.COC(COC%15=CC=CC(N(C)C)=C%15)COC%16=CC=CC(N(C)C)=C%16.COC(COC%17=CC=CC(N(C)C)=C%17)COC%18=CC=CC(N(C)C)=C%18.COC(COC%19=CC(N(C)C)=CC=C%19)COC%20=CC(N(C)C)=CC=C%20,683,,DMSO,,,,0.58,DMSO,,,,,,,10.1016/j.jorganchem.2015.02.021
1712,6_24,2b,TRUE,C[N+](C)(C)C1=CC(OCC(COC2=CC=CC([N+](C)(C)C)=C2)OC3=CC4=C(C5=NC(C6=C7C=CC=C6)=[N]8C7=NC(N9%10)=C%11C=CC=CC%11=C%10N=C%12C(C=CC=C%13)=C%13C%14=[N]%12[Zn]89N5C4=N%14)C=C3)=CC=C1.C[N+](C)(C)C%15=CC=CC(OCC(OC)COC%16=CC([N+](C)(C)C)=CC=C%16)=C%15.C[N+](C)(C)C%17=CC=CC(OCC(OC)COC%18=CC([N+](C)(C)C)=CC=C%18)=C%17.C[N+](C)(C)C%19=CC(OCC(COC%20=CC=CC([N+](C)(C)C)=C%20)OC)=CC=C%19,683,,DMSO,,,,0.7,DMSO,,,,,,,10.1016/j.jorganchem.2015.02.021
1713,6_25,3a,TRUE,CN(C)C1=CC(OCC(COC2=CC=CC(N(C)C)=C2)OC3=CC=CC4=C3C5=NC(C6=C7C=CC=C6)=[N]8C7=NC(N9%10)=C%11C=CC=CC%11=C%10N=C%12C(C=CC=C%13)=C%13C%14=[N]%12[Zn]89N5C4=N%14)=CC=C1.CN(C)C%15=CC(OCC(COC%16=CC=CC(N(C)C)=C%16)OC)=CC=C%15.CN(C)C%17=CC=CC(OCC(COC%18=CC(N(C)C)=CC=C%18)OC)=C%17.COC(COC%19=CC(N(C)C)=CC=C%19)COC%20=CC(N(C)C)=CC=C%20,703,,DMSO,,,,0.43,DMSO,,,,,,,10.1016/j.jorganchem.2015.02.021
1714,6_26,3b,TRUE,C[N+](C)(C)C1=CC(OCC(COC2=CC=CC([N+](C)(C)C)=C2)OC3=CC=CC4=C3C5=NC(C6=C7C=CC=C6)=[N]8C7=NC(N9%10)=C%11C=CC=CC%11=C%10N=C%12C(C=CC=C%13)=C%13C%14=[N]%12[Zn]89N5C4=N%14)=CC=C1.C[N+](C)(C)C%15=CC(OCC(COC%16=CC=CC([N+](C)(C)C)=C%16)OC)=CC=C%15.C[N+](C)(C)C%17=CC=CC(OCC(COC%18=CC([N+](C)(C)C)=CC=C%18)OC)=C%17.COC(COC%19=CC([N+](C)(C)C)=CC=C%19)COC%20=CC([N+](C)(C)C)=CC=C%20,700,,DMSO,,,,0.75,DMSO,,,,,,,10.1016/j.jorganchem.2015.02.021
1715,6_27,Pc1 ,TRUE,CN(C)C1=CC(OC2=CC3=C(C=C2OC4=CC=CC(N(C)C)=C4)C5=[N]6[Zn]([N]7=C8C9=C(C7=N%10)C=CC=C9)(N(C%11=N5)C(C%12=C%11C=CC=C%12)=N8)N%13C%10=C%14C=CC=CC%14=C%13N=C36)=CC=C1,671,679,DMF,132000,0.07,,0.33,DMF,,,,,,,10.1016/j.jphotobiol.2020.112086
1716,6_28,Pc2,TRUE,C[N+](C)(C)C1=CC(OC2=CC3=C(C=C2OC4=CC=CC([N+](C)(C)C)=C4)C5=[N]6[Zn]([N]7=C8C9=C(C7=N%10)C=CC=C9)(N(C%11=N5)C(C%12=C%11C=CC=C%12)=N8)N%13C%10=C%14C=CC=CC%14=C%13N=C36)=CC=C1,671,681,DMF,136000,0.14,,0.5,DMF,,,,,,,10.1016/j.jphotobiol.2020.112086
1717,6_29,Pc3,TRUE,CN(C)C1=CC(OC2=C(OC3=CC(N(C)C)=CC=C3)C4=C(C(OC5=CC(N(C)C)=CC=C5)=C2OC6=CC=CC(N(C)C)=C6)C7=NC8=[N]9C(C%10=C8C(OC%11=CC(N(C)C)=CC=C%11)=C(OC%12=CC(N(C)C)=CC=C%12)C(OC%13=CC(N(C)C)=CC=C%13)=C%10OC%14=CC(N(C)C)=CC=C%14)=NC%15=C%16C(OC%17=CC(N(C)C)=CC=C%17)=C(OC%18=CC(N(C)C)=CC=C%18)C(OC%19=CC(N(C)C)=CC=C%19)=C(OC%20=CC=CC(N(C)C)=C%20)C%16=C%21N%15[Zn]%229[N](C(C%23=C%24C(OC%25=CC=CC(N(C)C)=C%25)=C(OC%26=CC=CC(N(C)C)=C%26)C(OC%27=CC=CC(N(C)C)=C%27)=C%23OC%28=CC=CC(N(C)C)=C%28)=N%21)=C%24N=C4N%227)=CC=C1,720,,DMF,194000,,,0.14,DMF,,,,,,,10.1016/j.jphotobiol.2020.112086
1718,6_30,Pc4,TRUE,C[N+](C)(C)C1=CC(OC2=C(OC3=CC([N+](C)(C)C)=CC=C3)C4=C(C(OC5=CC([N+](C)(C)C)=CC=C5)=C2OC6=CC=CC([N+](C)(C)C)=C6)C7=NC8=[N]9C(C%10=C8C(OC%11=CC([N+](C)(C)C)=CC=C%11)=C(OC%12=CC([N+](C)(C)C)=CC=C%12)C(OC%13=CC([N+](C)(C)C)=CC=C%13)=C%10OC%14=CC([N+](C)(C)C)=CC=C%14)=NC%15=C%16C(OC%17=CC([N+](C)(C)C)=CC=C%17)=C(OC%18=CC([N+](C)(C)C)=CC=C%18)C(OC%19=CC([N+](C)(C)C)=CC=C%19)=C(OC%20=CC=CC([N+](C)(C)C)=C%20)C%16=C%21N%15[Zn]%229[N](C(C%23=C%24C(OC%25=CC=CC([N+](C)(C)C)=C%25)=C(OC%26=CC=CC([N+](C)(C)C)=C%26)C(OC%27=CC=CC([N+](C)(C)C)=C%27)=C%23OC%28=CC=CC([N+](C)(C)C)=C%28)=N%21)=C%24N=C4N%227)=CC=C1,718,742,DMF,201000,0.06,,0.73,DMF,,,,,,,10.1016/j.jphotobiol.2020.112086
1719,6_31,3a,FALSE,COC(C(C=C1)=CC=C1O[Si]23(N45)(OC6=CC=C(C(OC)=O)C=C6)[N](C(C7=C8C=CC=C7)=N9)=C8N=C4C%10=C(C=CC=C%10)C5=NC%11=[N]2C(C%12=C%11C=CC=C%12)=NC%13=C%14C=CC=CC%14=C9N3%13)=O,683,690,DMF,125892,0.3,,0.47,DMF,,,,,,,10.1016/j.jphotochem.2015.03.010
1720,6_32,3b,FALSE,O=C(OCC)C(C=C1)=CC=C1O[Si]23(N45)(OC6=CC=C(C(OCC)=O)C=C6)[N](C(C7=C8C=CC=C7)=N9)=C8N=C4C%10=C(C=CC=C%10)C5=NC%11=[N]2C(C%12=C%11C=CC=C%12)=NC%13=C%14C=CC=CC%14=C9N3%13,682,690,DMF,144543,0.27,,0.47,DMF,,,,,,,10.1016/j.jphotochem.2015.03.010
1721,6_33,3c,FALSE,O=C(OCCC)C(C=C1)=CC=C1O[Si]23(N45)(OC6=CC=C(C(OCCC)=O)C=C6)[N](C(C7=C8C=CC=C7)=N9)=C8N=C4C%10=C(C=CC=C%10)C5=NC%11=[N]2C(C%12=C%11C=CC=C%12)=NC%13=C%14C=CC=CC%14=C9N3%13,683,690,DMF,194984,0.27,,0.46,DMF,,,,,,,10.1016/j.jphotochem.2015.03.010
1722,6_34,3d,FALSE,O=C(OCCCC)C(C=C1)=CC=C1O[Si]23(N45)(OC6=CC=C(C(OCCCC)=O)C=C6)[N](C(C7=C8C=CC=C7)=N9)=C8N=C4C%10=C(C=CC=C%10)C5=NC%11=[N]2C(C%12=C%11C=CC=C%12)=NC%13=C%14C=CC=CC%14=C9N3%13,682,690,DMF,223872,0.27,,0.48,DMF,,,,,,,10.1016/j.jphotochem.2015.03.010
1723,6_35,"(3): 1(4),8(11),15(18),22(25)-Tetrakis-(2,4,6-trimethylphenoxy)phthalocyaninatoindium (III)
acetate",TRUE,CC1=CC(C)=CC(C)=C1OC2=CC=CC3=C2C4N=C5C(C=CC=C6)=C6C7=NC8=[N]9C(C%10=C8C=CC=C%10)=NC%11=C%12C=CC=CC%12=C%13N=C3N4[In]9(N75)(N%11%13)OC(C)=O.COC%14=C(C)C=C(C)C=C%14C.COC%15=C(C)C=C(C)C=C%15C.COC%16=C(C)C=C(C)C=C%16C,720,728,DMF,144543,0.016,,0.86,DMF,,,,,,,10.1016/j.jphotochem.2015.09.009
1724,6_36,"(4): 2(3),9(10),16(17),23(24)-Tetrakis-(2,4,6-trimethylphenoxy)phthalocyaninatoindium
(III) acetate",TRUE,CC1=C(C(C)=CC(C)=C1)OC2=CC(C3=NC4=[N]5C(C6=C4C=CC=C6)=NC7=C8C=CC=CC8=C9N=C%10N%11[In]5(N3%12)(N79)OC(C)=O)=C(C=C2)C%12=NC%11C%13=C%10C=CC=C%13.COC%14=C(C)C=C(C)C=C%14C.COC%15=C(C)C=C(C)C=C%15C.COC%16=C(C)C=C(C)C=C%16C,696,707,DMF,102329,0.021,,0.82,DMF,,,,,,,10.1016/j.jphotochem.2015.09.009
1725,6_37,"(5):1(4),8(11),15(18),22(25)-Tetrakis-(2,4,6-trimethylphenoxy)phthalocyaninatozinc(II)",TRUE,CC1=CC(C)=CC(C)=C1OC2=CC=CC3=C2C4N=C5C(C=CC=C6)=C6C7=NC8=[N]9C(C%10=C8C=CC=C%10)=NC%11=C%12C=CC=CC%12=C%13N=C3N4[Zn@]9(N75)N%11%13.COC%14=C(C)C=C(C)C=C%14C.COC%15=C(C)C=C(C)C=C%15C.COC%16=C(C)C=C(C)C=C%16C,701,713,DMF,190546,0.145,,0.77,DMF,,,,,,,10.1016/j.jphotochem.2015.09.009
1726,6_38,"(6): 2(3),9(10),16(17),23(24)-Tetrakis-(2,4,6-trimethylphenoxy)phthalocyaninatozinc(II)",TRUE,CC1=C(C(C)=CC(C)=C1)OC2=CC(C3=NC4=[N]5C(C6=C4C=CC=C6)=NC7=C8C=CC=CC8=C9N=C%10N%11[Zn@]5(N3%12)N79)=C(C=C2)C%12=NC%11C%13=C%10C=CC=C%13.COC%14=C(C)C=C(C)C=C%14C.COC%15=C(C)C=C(C)C=C%15C.COC%16=C(C)C=C(C)C=C%16C,682,689,DMF,151356,0.165,,0.72,DMF,,,,,,,10.1016/j.jphotochem.2015.09.009
1727,6_39," (7): 1(4),8(11),15(18),22(25)-Tetrakis-(2,4,6-trimethylphenoxy)phthalocyanine",FALSE,CC1=CC(C)=CC(C)=C1OC2=CC=CC3=C2C4N=C5C(C=CC=C6)=C6C7=NC8=[N]9C(C%10=C8C=CC=C%10)=NC%11=C%12C=CC=CC%12=C%13N=C3N4[2H]9(N75)N%11%13.COC%14=C(C)C=C(C)C=C%14C.COC%15=C(C)C=C(C)C=C%15C.COC%16=C(C)C=C(C)C=C%16C,697,723,DMF,91201,0.12,,0.24,DMF,,,,,,,10.1016/j.jphotochem.2015.09.009
1728,6_40," (8): 2(3),9(10),16(17),23(24)-Tetrakis-(2,4,6-trimethylphenoxy)phthalocyanine",FALSE,CC1=C(C(C)=CC(C)=C1)OC2=CC(C3=NC4=[N]5C(C6=C4C=CC=C6)=NC7=C8C=CC=CC8=C9N=C%10N%11[2H]5(N3%12)N79)=C(C=C2)C%12=NC%11C%13=C%10C=CC=C%13.COC%14=C(C)C=C(C)C=C%14C.COC%15=C(C)C=C(C)C=C%15C.COC%16=C(C)C=C(C)C=C%16C,676,706,DMF,31622,0.135,,0.2,DMF,,,,,,,10.1016/j.jphotochem.2015.09.009
1729,6_41,ZnPcs4,TRUE,CC1=C(OC(C2=C3N4[Zn](N56)7[N](C(C8=C9C=CC=C8)=N3)=C9N=C5C%10=C(C=CC=C%10)C6=N%11)=CC=CC2=C4N=C%12[N]7=C%11C%13=C%12C=CC=C%13)C=C(C)C=C1C.COC%14=CC(C)=CC(C)=C%14C.CC%15=C(C)C=C(C)C=C%15OC.CC%16=C(OC)C=C(C)C=C%16C,697,706,DMF,162181,0.17,,0.8,DMF,,,,,,,10.1016/j.jphotochem.2016.11.009
1730,6_42,ZnPcs5,TRUE,CC1=C(OC2=CC(C(C=C2)=C3N4[Zn](N56)7[N](C(C8=C9C=CC=C8)=N3)=C9N=C5C%10=C(C=CC=C%10)C6=N%11)=C4N=C%12[N]7=C%11C%13=C%12C=CC=C%13)C=C(C)C=C1C.COC%14=CC(C)=CC(C)=C%14C.CC%15=C(C)C=C(C)C=C%15OC.CC%16=C(OC)C=C(C)C=C%16C,680,688,DMF,141253,0.2,,0.75,DMF,,,,,,,10.1016/j.jphotochem.2016.11.009
1731,6_43,ZnPcs6,TRUE,CC1=C(OC2=CC(C(C=C2Cl)=C3N4[Zn](N56)7[N](C(C8=C9C=C(Cl)C(OC%10=CC(C)=CC(C)=C%10C)=C8)=N3)=C9N=C5C%11=C(C=C(Cl)C(OC%12=CC(C)=CC(C)=C%12C)=C%11)C6=N%13)=C4N=C%14[N]7=C%13C%15=C%14C=C(Cl)C(OC%16=CC(C)=CC(C)=C%16C)=C%15)C=C(C)C=C1C,681,689,DMF,120226,0.15,,0.71,DMF,,,,,,,10.1016/j.jphotochem.2016.11.009
1732,6_44,H2Pcs7,FALSE,CC1=C(OC(C2=C3N4[2H](N56)7[N](C(C8=C9C=CC=C8)=N3)=C9N=C5C%10=C(C=CC=C%10)C6=N%11)=CC=CC2=C4N=C%12[N]7=C%11C%13=C%12C=CC=C%13)C=C(C)C=C1C.COC%14=CC(C)=CC(C)=C%14C.CC%15=C(C)C=C(C)C=C%15OC.CC%16=C(OC)C=C(C)C=C%16C,720,730,DMF,169824,0.09,,0.26,DMF,,,,,,,10.1016/j.jphotochem.2016.11.009
1733,6_45,H2Pcs8,FALSE,CC1=C(OC2=CC(C(C=C2)=C3N4[2H](N56)7[N](C(C8=C9C=CC=C8)=N3)=C9N=C5C%10=C(C=CC=C%10)C6=N%11)=C4N=C%12[N]7=C%11C%13=C%12C=CC=C%13)C=C(C)C=C1C.COC%14=CC(C)=CC(C)=C%14C.CC%15=C(C)C=C(C)C=C%15OC.CC%16=C(OC)C=C(C)C=C%16C,672,706,DMF,144543,0.11,,0.23,DMF,,,,,,,10.1016/j.jphotochem.2016.11.009
1734,6_46,H2Pcs9,FALSE,CC1=C(OC2=CC(C(C=C2Cl)=C3N4[2H](N56)7[N](C(C8=C9C=C(Cl)C(OC%10=CC(C)=CC(C)=C%10C)=C8)=N3)=C9N=C5C%11=C(C=C(Cl)C(OC%12=CC(C)=CC(C)=C%12C)=C%11)C6=N%13)=C4N=C%14[N]7=C%13C%15=C%14C=C(Cl)C(OC%16=CC(C)=CC(C)=C%16C)=C%15)C=C(C)C=C1C,672,705,DMF,72443,0.07,,0.22,DMF,,,,,,,10.1016/j.jphotochem.2016.11.009
1735,6_47,(3),TRUE,CC(OC1)(C)OC1COC2=CC3=C(C([N]4=C3N=C(N5[Zn@@]46N78)C9=C(C=CC=C9)C5=N%10)=NC7=C%11C=CC=CC%11=C8N=C%12[N]6=C%10C%13=C%12C=CC=C%13)C=C2.COCC%14OC(C)(C)OC%14.COCC%15OC(C)(C)OC%15.COCC%16COC(C)(C)O%16,680,693,DMSO,125892,0.18,,0.24,DMSO,,,,,,,10.1016/j.jphotochem.2017.02.025
1736,6_48,(4),TRUE,CC(OC1)(C)OC1COC2=CC3=C(C([N]4=C3N=C(N5[Zn@@]46N78)C9=C(C=CC=C9)C5=N%10)=NC7=C%11C=C(C=CC=C%12)C%12=CC%11=C8N=C%13[N]6=C%10C%14=C%13C=CC=C%14)C=C2.COCC%15OC(C)(C)OC%15.COCC%16COC(C)(C)O%16,713,722,DMSO,63095,0.1,,0.18,DMSO,,,,,,,10.1016/j.jphotochem.2017.02.025
1737,6_49,(5),TRUE,CC(OC1)(C)OC1COC2=CC3=C(C([N]4=C3N=C(N5[Zn@@]46N78)C9=C(C=C(C=CC=C%10)C%10=C9)C5=N%11)=NC7=C%12C=C(C=CC=C%13)C%13=CC%12=C8N=C%14[N]6=C%11C%15=C%14C=C(C=CC=C%16)C%16=C%15)C=C2,738,755,DMSO,79432,0.06,,0.15,DMSO,,,,,,,10.1016/j.jphotochem.2017.02.025
1738,6_50,ZnNc,TRUE,C1(N(C(C2=C1C=C3C(C=CC=C3)=C2)=N4)[Zn]56N78)=NC9=[N]5C(C%10=C9C=C(C=CC=C%11)C%11=C%10)=NC7=C%12C=C(C=CC=C%13)C%13=CC%12=C8N=C%14[N]6=C4C%15=C%14C=C(C=CC=C%16)C%16=C%15,764,768,DMSO,100000,0.07,,0.03,DMSO,,,,,,,10.1016/j.jphotochem.2017.02.025
1739,6_51, APC,TRUE,COC1=CC2=C(C=CC=C2)C=C1.COC3=CC4=C(C=CC=C4)C=C3.COC5=CC6=C(C=CC=C6)C=C5.CN.C7(N(C(C8=C7C=CC=C8)=N9)[Zn]%10%11N%12%13)=NC%14=[N]%10C(C%15=C%14C=CC=C%15)=NC%12=C%16C=CC=CC%16=C%13N=C%17[N]%11=C9C%18=C%17C=CC=C%18,672,,DMF,,,,,,,5.46,3.62,1.84,electrochemistry,,10.1016/j.molstruc.2014.09.037
1740,6_52,bi-NPC,TRUE,COC1=CC2=C(C=CC=C2)C=C1.COC3=CC4=C(C=CC=C4)C=C3.COC5=CC6=C(C=CC=C6)C=C5.CN=CC7=CC=C(C=NC)C=C7.COC8=CC(C=CC=C9)=C9C=C8.CCC%10=CC(C=CC=C%11)=C%11C=C%10.COC%12=CC(C=CC=C%13)=C%13C=C%12.C%14(N(C(C%15=C%14C=CC=C%15)=N%16)[Zn]%17%18N%19%20)=NC%21=[N]%17C(C%22=C%21C=CC=C%22)=NC%19=C%23C=CC=CC%23=C%20N=C%24[N]%18=C%16C%25=C%24C=CC=C%25.C%26(N(C(C%27=C%26C=CC=C%27)=N%28)[Zn]%29%30N%31%32)=NC%33=[N]%29C(C%34=C%33C=CC=C%34)=NC%31=C%35C=CC=CC%35=C%32N=C%36[N]%30=C%28C%37=C%36C=CC=C%37,680,,DMF,,,,,,,5.33,3.51,1.82,electrochemistry,,10.1016/j.molstruc.2014.09.037
1741,6_53,Pc-Org-1 ,TRUE,O=C(C(CC(O)=O)C1=CC2=C(C([N]3=C2N=C(N4[Zn]35N67)C8=C(C=CC(C9=CC=C(N(C%10=CC=CC=C%10)C%11=CC=CC=C%11)C=C9)=C8)C4=N%12)=NC6=C%13C=C(C%14=CC=C(N(C%15=CC=CC=C%15)C%16=CC=CC=C%16)C=C%14)C=CC%13=C7N=C%17[N]5=C%12C%18=C%17C=CC(C%19=CC=C(N(C%20=CC=CC=C%20)C%21=CC=CC=C%21)C=C%19)=C%18)C=C1)O,350,690,THF,211400,,,,,,5.41,3.6,1.81,electrochemistry,,10.1016/j.solener.2011.02.027
1742,6_54,PCH001,TRUE,CC(C)(C)C1=CC2=C(C3=NC4=C5C=CC(C(C)(C)C)=CC5=C6N4[Zn]7(N89)[N](C(C%10=C%11C=C(C(CC(O)=O)C(O)=O)C=C%10)=N6)=C%11N=C8C%12=C(C=CC(C(C)(C)C)=C%12)C9=NC2=[N]37)C=C1,692,698,THF,191000,,,,,,5.15,3.37,1.78,electrochemistry,,10.1016/j.solener.2011.02.027
1743,6_55,PCA-ZnPc-2 ,TRUE,CCCCCCSC1=CC(C([N]2=C3N=C(N4[Zn@@]25N67)C8=C(C=CC(OC9=CC=C(C%10=CC(C(O)=O)=NN%10)C=C9)=C8)C4=N%11)=NC6=C%12C=C(SCCCCCC)C(SCCCCCC)=CC%12=C7N=C%13[N]5=C%11C%14=C%13C=C(SCCCCCC)C(SCCCCCC)=C%14)=C3C=C1SCCCCCC,697,713,THF,166000,,,,,,-5.52,-3.38,2.14,theoretical,,10.1016/j.solener.2019.09.043
1744,6_56,PCH003 ,TRUE,CCCCOC(C1=C2N3[Zn](N45)6[N](C(C7=C8C=C(C(C(O)=O)CC(O)=O)C=C7)=N2)=C8N=C4C9=C(C(OCCCC)=CC=C9OCCCC)C5=N%10)=CC=C(OCCCC)C1=C3N=C%11[N]6=C%10C%12=C%11C(OCCCC)=CC=C%12OCCCC,702,705,ethanol ,68000,,,,,,-1.15,-1.26,0.11,electrochemistry,,10.1016/j.solmat.2007.05.004
1745,6_57,5(phthalocyanine complexes),TRUE,COCC1COCCOCCOCCO1.COCC2COCCOCCOCCO2.COCC3COCCOCCOCCO3.COCC4COCCOCCOCCO4.C5(N(C(C6=C5C=CC=C6)=N7)[Zn]89N%10%11)=NC%12=[N]8C(C%13=CC=CC=C%12%13)=NC%10=C%14C=CC=CC%14=C%11N=C%15[N]9=C7C%16=C%15C=CC=C%16,706,715,DMSO,72443,0.19,,0.48, DMSO,,,,,,,10.1016/j.synthmet.2009.04.018
1746,6_58,6(phthalocyanine complexes),TRUE,COCC1COCCOCCOCCO1.COCC2COCCOCCOCCO2.COCC3COCCOCCOCCO3.C4(N(C(C5=C4C=CC=C5)=N6)[Zn]78N9%10)=NC%11=[N]7C(C%12=CC(OCC%13COCCOCCOCCO%13)=CC=C%11%12)=NC9=C%14C=CC=CC%14=C%10N=C%15[N]8=C6C%16=C%15C=CC=C%16,688,698,DMSO,74131,0.28,,0.71, DMSO,,,,,,,10.1016/j.synthmet.2009.04.018
1747,6_59,7(phthalocyanine complexes),TRUE,C1(N(C(C2=C1C=C(OCC3COCCOCCOCCO3)C(OCC4COCCOCCOCCO4)=C2)=N5)[Zn]67N89)=NC%10=[N]6C(C%11=CC(OCC%12COCCOCCOCCO%12)=C(OCC%13COCCOCCOCCO%13)C=C%10%11)=NC8=C%14C=C(OCC%15COCCOCCOCCO%15)C(OCC%16COCCOCCOCCO%16)=CC%14=C9N=C%17[N]7=C5C%18=C%17C=C(OCC%19COCCOCCOCCO%19)C(OCC%20COCCOCCOCCO%20)=C%18,689,693,DMSO,125892,0.2,,0.78, DMSO,,,,,,,10.1016/j.synthmet.2009.04.018
1748,6_60,"ZnMCPPc, 1",TRUE,OC(C1=CC(OC2=CC3=C(C=C2)C4=NC5=[N]6C(C7=C5C=CC=C7)=NC8=C9C=CC=CC9=C%10N8[Zn@@]%116[N](C(C%12=C%13C=CC=C%12)=N%10)=C%13N=C3N%114)=CC=C1)=O,675,685,DMSO,,,,0.2, DMSO,,,,,,,10.1016/j.synthmet.2015.03.011
1749,6_61,"ZnMCPPc-spermine, 2",TRUE,O=C(NCCCNCCCCNCCCN)C1=CC(OC2=CC3=C(C=C2)C4=NC5=[N]6C(C7=C5C=CC=C7)=NC8=C9C=CC=CC9=C%10N8[Zn@@]%116[N](C(C%12=C%13C=CC=C%12)=N%10)=C%13N=C3N%114)=CC=C1,675,683,DMSO,,,,0.83, DMSO,,,,,,,10.1016/j.synthmet.2015.03.011