,index,name,metal_complex,SMILES,max_absorption_peak,max_emission_peak,solvant_spectrum,molar_extinction_coefficient,quantum_yield_fluorescence,max_phosphorescence_peak,quantum_yield_singlet_oxygen,solvant_quantum_yield,energy_level_exited_triplet_state,energy_level_HUMO,energy_level_LUMO,difference_HOMO_and_LUMO,method_for_HOMO/LUMO,all_absoption_peaks,reference_DOI
1535,3_310,1H2,FALSE,CCCCCCCCOC(C(OCCCCCCCC)=C1)=CC2=C1C(/N=C(C(C3=CC=C(C(C)(C)C)C=C3)=C/4C5=CC=C(C(C)(C)C)C=C5)\NC4=N/C(C(C6=CC=C(C(C)(C)C)C=C6)=C/7C8=CC=C(C(C)(C)C)C=C8)=NC7=N/9)=N/C2=N\C%10=C(C%11=CC=C(C(C)(C)C)C=C%11)C(C%12=CC=C(C(C)(C)C)C=C%12)=C9N%10,701,,spectral grade toluene,,,,0.23,spectral grade toluene,,,,,,,10.1021/jp050073a
1536,3_311,2AdH2,FALSE,CCCCCCCCOC(C(OCCCCCCCC)=C1)=CC2=C1C(/N=C(C(C3=CC=C(C(C)(C)C)C=C3)=C/4C5=CC=C(C(C)(C)C)C=C5)\NC4=N/C(C(C6=CC=C(C(C)(C)C)C=C6)=C/7C8=CC=C(C(C)(C)C)C=C8)=NC7=N/9)=N/C2=N\C%10=C(OCCCCCCCC)C(OCCCCCCCC)=C9N%10,678,,spectral grade toluene,,,,0.01,spectral grade toluene,,,,,,,10.1021/jp050073a
1537,3_312,2OpH2,FALSE,CCCCCCCCOC(C(OCCCCCCCC)=C1)=CC2=C1C(/N=C(C(C3=CC=C(C(C)(C)C)C=C3)=C/4C5=CC=C(C(C)(C)C)C=C5)\NC4=N/C(C(OCCCCCCCC)=C/6OCCCCCCCC)=NC6=N/7)=N/C2=N\C8=C(C9=CC=C(C(C)(C)C)C=C9)C(C%10=CC=C(C(C)(C)C)C=C%10)=C7N8,734,,spectral grade toluene,,,,0.5,spectral grade toluene,,,,,,,10.1021/jp050073a
1538,3_313,3H2,FALSE,CCCCCCCCOC(C(OCCCCCCCC)=C1)=CC2=C1C(/N=C(C(C3=CC=C(C(C)(C)C)C=C3)=C/4C5=CC=C(C(C)(C)C)C=C5)\NC4=N/C(C(OCCCCCCCC)=C/6OCCCCCCCC)=NC6=N/7)=N/C2=N\C8=C(OCCCCCCCC)C(OCCCCCCCC)=C7N8,709,,spectral grade toluene,,,,0.27,spectral grade toluene,,,,,,,10.1021/jp050073a
1539,3_314,4H2,FALSE,CCCCCCCCOC(C(OCCCCCCCC)=C1)=CC2=C1C(/N=C(C(OCCCCCCCC)=C/3OCCCCCCCC)\NC3=N/C(C(OCCCCCCCC)=C/4OCCCCCCCC)=NC4=N/5)=N/C2=N\C6=C(OCCCCCCCC)C(OCCCCCCCC)=C5N6,701,,spectral grade toluene,,,,0.14,spectral grade toluene,,,,,,,10.1021/jp050073a
1540,4_0,1a,FALSE,O=C1C(C=C2N(C)C(C=CC=C3)=C3S2)=C([O-])C1=CC4=[N+](C)C5=CC=CC=C5S4,647,,methanol/ dichloromethane=99/1,275423,,,0.17,dichloromethane,,,,,,647,10.1016/S1010-6030(03)00203-X
1541,4_1,1b,FALSE,O=C1C(C=C2N(CC)C(C=CC=C3)=C3S2)=C([O-])C1=CC4=[N+](CC)C5=CC=CC=C5S4,650,,methanol/ dichloromethane=99/1,173780,,,0.26,dichloromethane,,,,,,650,10.1016/S1010-6030(03)00203-X
1542,4_2,1c,FALSE,O=C1C(C=C2N(CCCCCC)C(C=CC=C3)=C3S2)=C([O-])C1=CC4=[N+](CCCCCC)C5=CC=CC=C5S4,650,,methanol/ dichloromethane=99/1,257040,,,0.26,dichloromethane,,,,,,650,10.1016/S1010-6030(03)00203-X
1543,4_3,2a,FALSE,O=C1C(C=C2N(C)C(C=CC=C3)=C3[Se]2)=C([O-])C1=CC4=[N+](C)C5=CC=CC=C5[Se]4,662,,methanol/ dichloromethane=99/1,162181,,,0.31,dichloromethane,,,,,,662,10.1016/S1010-6030(03)00203-X
1544,4_4,2b,FALSE,O=C1C(C=C2N(CC)C(C=CC=C3)=C3[Se]2)=C([O-])C1=CC4=[N+](CC)C5=CC=CC=C5[Se]4,665,,methanol/ dichloromethane=99/1,309029,,,0.31,dichloromethane,,,,,,665,10.1016/S1010-6030(03)00203-X
1545,4_5,2c,FALSE,O=C1C(C=C2N(CCCCCC)C(C=CC=C3)=C3[Se]2)=C([O-])C1=CC4=[N+](CCCCCC)C5=CC=CC=C5[Se]4,668,,methanol/ dichloromethane=99/1,257040,,,0.31,dichloromethane,,,,,,668,10.1016/S1010-6030(03)00203-X
1546,4_6,3a,FALSE,O=C1C(C=C2N(C)C(C=CC=C3)=C3C=C2)=C([O-])C1=CC4=[N+](C)C5=C(C=CC=C5)C=C4,704,,methanol/ dichloromethane=99/1,223872,,,0.08,dichloromethane,,,,,,704,10.1016/S1010-6030(03)00203-X
1547,4_7,3b,FALSE,O=C1C(C=C2N(CC)C(C=CC=C3)=C3C=C2)=C([O-])C1=CC4=[N+](CC)C5=C(C=CC=C5)C=C4,707,,methanol/ dichloromethane=99/1,245471,,,0.1,dichloromethane,,,,,,707,10.1016/S1010-6030(03)00203-X
1548,4_8,3c,FALSE,O=C1C(C=C2N(CCCCCC)C(C=CC=C3)=C3C=C2)=C([O-])C1=CC4=[N+](CCCCCC)C5=C(C=CC=C5)C=C4,710,,methanol/ dichloromethane=99/1,234423,,,0.13,dichloromethane,,,,,,710,10.1016/S1010-6030(03)00203-X
1549,4_9,1a,FALSE,O=C1C(C=C2N(CC)C(C=CC=C3)=C3C=C2)=C(NC)C1=CC4=[N+](CC)C5=C(C=CC=C5)C=C4.[I-],707,,methanol/ dichloromethane=99/1,269153,,,0.01,dichloromethane,,,,,,707,10.1016/j.jphotochem.2003.12.007
1550,4_10,1b,FALSE,O=C1C(C=C2N(CC)C(C=CC=C3)=C3S2)=C(NC)C1=CC4=[N+](CC)C5=CC=CC=C5S4.[I-],659,,methanol/ dichloromethane=99/1,169824,,,0.04,dichloromethane,,,,,,659,10.1016/j.jphotochem.2003.12.007
1551,4_11,1c,FALSE,O=C1C(C=C2N(CC)C(C=CC=C3)=C3[Se]2)=C(NC)C1=CC4=[N+](CC)C5=CC=CC=C5[Se]4.[I-],674,,methanol/ dichloromethane=99/1,181970,,,0.45,dichloromethane,,,,,,674,10.1016/j.jphotochem.2003.12.007
1552,4_12,2a,FALSE,O=C1C(C=C2N(CCCCCC)C(C=CC=C3)=C3C=C2)=C(NC)C1=CC4=[N+](CCCCCC)C5=C(C=CC=C5)C=C4.[I-],710,,methanol/ dichloromethane=99/1,229087,,,0.03,dichloromethane,,,,,,710,10.1016/j.jphotochem.2003.12.007
1553,4_13,2b,FALSE,O=C1C(C=C2N(CCCCCC)C(C=CC=C3)=C3S2)=C(NC)C1=CC4=[N+](CCCCCC)C5=CC=CC=C5S4.[I-],659,,methanol/ dichloromethane=99/1,165959,,,0.14,dichloromethane,,,,,,659,10.1016/j.jphotochem.2003.12.007
1554,4_14,2c,FALSE,O=C1C(C=C2N(CCCCCC)C(C=CC=C3)=C3[Se]2)=C(NC)C1=CC4=[N+](CCCCCC)C5=CC=CC=C5[Se]4.[I-],677,,methanol/ dichloromethane=99/1,169824,,,0.68,dichloromethane,,,,,,677,10.1016/j.jphotochem.2003.12.007
1555,4_15,3a,FALSE,O=C1C(C=C2N(CC)C(C=CC=C3)=C3C=C2)=C(N(CC)CC)C1=CC4=[N+](CC)C5=C(C=CC=C5)C=C4.[I-],719,,methanol/ dichloromethane=99/1,354813,,,0,dichloromethane,,,,,,719,10.1016/j.jphotochem.2003.12.007
1556,4_16,3b,FALSE,O=C1C(C=C2N(CC)C(C=CC=C3)=C3S2)=C(N(CC)CC)C1=CC4=[N+](CC)C5=CC=CC=C5S4.[I-],668,,methanol/ dichloromethane=99/1,186209,,,0,dichloromethane,,,,,,668,10.1016/j.jphotochem.2003.12.007
1557,4_17,3c,FALSE,O=C1C(C=C2N(CC)C(C=CC=C3)=C3[Se]2)=C(N(CC)CC)C1=CC4=[N+](CC)C5=CC=CC=C5[Se]4.[I-],686,,methanol/ dichloromethane=99/1,165959,,,0.26,dichloromethane,,,,,,686,10.1016/j.jphotochem.2003.12.007
1558,4_18,4a,FALSE,O=C1C(C=C2N(CCCCCC)C(C=CC=C3)=C3C=C2)=C(N(CC)CC)C1=CC4=[N+](CCCCCC)C5=C(C=CC=C5)C=C4.[I-],722,,methanol/ dichloromethane=99/1,239883,,,0,dichloromethane,,,,,,722,10.1016/j.jphotochem.2003.12.007
1559,4_19,4b,FALSE,O=C1C(C=C2N(CCCCCC)C(C=CC=C3)=C3S2)=C(N(CC)CC)C1=CC4=[N+](CCCCCC)C5=CC=CC=C5S4.[I-],671,,methanol/ dichloromethane=99/1,213796,,,0,dichloromethane,,,,,,671,10.1016/j.jphotochem.2003.12.007
1560,4_20,4c,FALSE,O=C1C(C=C2N(CCCCCC)C(C=CC=C3)=C3[Se]2)=C(N(CC)CC)C1=CC4=[N+](CCCCCC)C5=CC=CC=C5[Se]4.[I-],689,,methanol/ dichloromethane=99/1,181970,,,0.4,dichloromethane,,,,,,689,10.1016/j.jphotochem.2003.12.007
1561,4_21,Cy5,FALSE,ClC1=C(/C=C/C2=[N+](CCCC(O)=O)C3=C(C=CC=C3)C2(C)C)CCC/C1=C\C=C4N(CCCC(O)=O)C(C=CC=C5)=C5C\4(C)C.[I-],785,843,ethanol,240000,0.16,,,,,-8.86,-3.95,4.91,theoretical,785,10.1016/j.ica.2017.08.001
1562,4_22,Compound12,FALSE,ClC1=C(/C=C/C2=[N+](C)C3=C(C=C(C(O)=O)C=C3)C2(C)C)CC(C)C/C1=C\C=C4N(C)C(C=CC(C(O)=O)=C5)=C5C\4(C)C.[I-],787,793,methanol,2.46,,,,,,-4.8,-3.93,0.87,electrochemistry,"720, 787",10.1155/2021/8852979
1563,4_23,Compound13,FALSE,ClC1=C(/C=C/C2=[N+](C)C3=C(C=C(C(O)=O)C=C3)C2(C)C)CC(CC)C/C1=C\C=C4N(C)C(C=CC(C(O)=O)=C5)=C5C\4(C)C.[I-],785,794,methanol,3.16,,,,,,-4.79,-3.89,0.9,electrochemistry,"720, 785",10.1155/2021/8852979
1564,4_24,Compound14,FALSE,ClC1=C(/C=C/C2=[N+](C)C3=C(C=C(C(O)=O)C=C3)C2(C)C)CC(C(C)(C)C)C/C1=C\C=C4N(C)C(C=CC(C(O)=O)=C5)=C5C\4(C)C.[I-],784,793,methanol,3.22,,,,,,-4.92,-3.9,1.02,electrochemistry,"720, 784",10.1155/2021/8852979
1565,4_25,[PIC][I],FALSE,CCN(C(C=CC=C1)=C1C=C/2)C2=C\C3=[N+](CC)C4=CC=CC=C4C=C3.[I-],524,575,water,15400,0.000389,,,,,-5.53,-3.29,2.24,spectrometry ,"490, 524",10.1039/c2nr30432e
1566,4_26,1a,FALSE,O=C1/C(C([O-])=C1/C=C2N(CCCCCC)C(C=CC(I)=C3)=C3S/2)=C\C4=[N+](CCCCCC)C5=C(C=C(I)C=C5)S4,684,,dichloromethane,295121,,,0.32,dichloromethane,,,,,,"360, 684",10.1002/hlca.200590084
1567,4_27,1b,FALSE,O=C1/C(C([O-])=C1/C=C2N(CCCCCCCCCCCC)C(C=CC(I)=C3)=C3S/2)=C\C4=[N+](CCCCCCCCCCCC)C5=C(C=C(I)C=C5)S4,684,,dichloromethane,288403,,,0.22,dichloromethane,,,,,,684,10.1002/hlca.200590084
1568,4_28,1c,FALSE,O=C1/C(C([O-])=C1/C=C2N(CCCCCC)C(C=CC=C3)=C3S/2)=C\C4=[N+](CCCCCC)C5=C(C=CC=C5)S4,672,,dichloromethane,245471,,,0.26,dichloromethane,,,,,,"350, 672",10.1002/hlca.200590084
1569,4_29,8a,FALSE,O=C1/C(C(NC2=CC=CC=C2)=C1/C=C3N(CCCCCC)C(C=CC(I)=C4)=C4S/3)=C\C5=[N+](CCCCCC)C6=C(C=C(I)C=C6)S5,678,,dichloromethane,223872,,,0.46,dichloromethane,,,,,,"350, 678",10.1002/hlca.200590084
1570,4_30,8b,FALSE,O=C1/C(C(NC2=CC(I)=CC=C2)=C1/C=C3N(CCCCCC)C(C=CC(I)=C4)=C4S/3)=C\C5=[N+](CCCCCC)C6=C(C=C(I)C=C6)S5,675,,dichloromethane,158489,,,0.66,dichloromethane,,,,,,675,10.1002/hlca.200590084
1571,4_31,8c,FALSE,O=C1/C(C(NC2=CC(I)=CC=C2)=C1/C=C3N(CCCCCCCCCCCC)C(C=CC(I)=C4)=C4S/3)=C\C5=[N+](CCCCCCCCCCCC)C6=C(C=C(I)C=C6)S5,675,,dichloromethane,190546,,,0.33,dichloromethane,,,,,,675,10.1002/hlca.200590084
1572,4_32,8d,FALSE,O=C1/C(C(NC2=CC=CC=C2)=C1/C=C3N(CCCCCC)C(C=CC=C4)=C4S/3)=C\C5=[N+](CCCCCC)C6=C(C=CC=C6)S5,663,,dichloromethane,194984,,,0.32,dichloromethane,,,,,,"360, 663",10.1002/hlca.200590084
1573,4_33,8e,FALSE,O=C1/C(C(NC2=CC(I)=CC=C2)=C1/C=C3N(CCCCCC)C(C=CC=C4)=C4S/3)=C\C5=[N+](CCCCCC)C6=C(C=CC=C6)S5,660,,dichloromethane,154882,,,0.39,dichloromethane,,,,,,660,10.1002/hlca.200590084
1574,4_34,ICG,FALSE,CC1(C)C2=C(C=CC3=C2C=CC=C3)N(CCCCS(=O)(O[Na])=O)/C1=C/C=C/C=C/C=C/C4=[N+](CCCCS(=O)([O-])=O)C5=C(C(C=CC=C6)=C6C=C5)C4(C)C,780,,water,,0.27,,0.1,PBS,,,,,,"700, 780",10.1039/c6cc09624g
1575,4_35,6a,FALSE,ClC1=C(/C=C/C2=[N+](CCCCS(=O)([O-])=O)C3=C(C=C(I)C=C3)C2(C)C)CCC/C1=C\C=C4N(CCCCS(=O)(O[Na])=O)C(C=CC(I)=C5)=C5C\4(C)C,790,,water,,0.22,,0.66,PBS,,,,,,"700, 790",10.1039/c6cc09624g
1576,4_36,6b,FALSE,ClC1=C(/C=C/C2=[N+](CCCCS(=O)([O-])=O)C3=C(C(I)=CC(I)=C3)C2(C)C)CCC/C1=C\C=C4N(CCCCS(=O)(O[Na])=O)C(C=C(I)C=C5I)=C5C\4(C)C,687,,water,,0.009,,0.44,PBS,,,,,,687,10.1039/c6cc09624g
1577,4_37,Dye10,FALSE,O=C1/C(C([O-])=C1/C=C2N(CCCCCC)C(C=CC(I)=C3)=C3C=C/2)=C\C4=[N+](CCCCCC)C5=C(C=CC=C5)S4,726,,DMSO,181970,,,0.03,chloroform,,,,,,"675, 726",10.3390/app9245414
1578,4_38,Dye12,FALSE,O=C1/C(C(N)=C1/C=C2N(CCCCCC)C(C=CC(I)=C3)=C3C=C/2)=C\C4=[N+](CCCCCC)C5=C(C=CC=C5)S4.FC(F)(S(=O)([O-])=O)F,705,,DMSO,147911,,,0.03,chloroform,,,,,,705,10.3390/app9245414
1579,4_39,Dye13,FALSE,O=C1/C(C(NC)=C1/C=C2N(CCCCCC)C(C=CC(I)=C3)=C3C=C/2)=C\C4=[N+](CCCCCC)C5=C(C=CC=C5)S4.FC(F)(S(=O)([O-])=O)F,715,,DMSO,151356,,,0.05,chloroform,,,,,,715,10.3390/app9245414
1580,4_40,0aa,FALSE,ClC1=C(/C=C/C2=[N+](CCCCCC(O)=O)C3=C(C=CC=C3)C2(C)C)CCC/C1=C\C=C4N(CCCCCC(O)=O)C(C=CC=C5)=C5C\4(C)C,796,815,PBS (pH 7.4),235120,0.076,,0.058,PBS (pH 7.4),,,,,,796,10.1021/acsabm.8b00414
1581,4_41,0bb,FALSE,ClC1=C(/C=C/C2=[N+](CCCCS(=O)([O-])=O)C3=C(C=CC=C3)C2(C)C)CCC/C1=C\C=C4N(CCCCS(=O)([O-])=O)C(C=CC=C5)=C5C\4(C)C,812,827,PBS (pH 7.4),340920,0.095,,0.07,PBS (pH 7.4),,,,,,812,10.1021/acsabm.8b00414
1582,4_42,0cc,FALSE,ClC1=C(/C=C/C2=[N+](CCC)C3=C(C=CC=C3)C2(C)C)CCC/C1=C\C=C4N(CCC)C(C=CC=C5)=C5C\4(C)C,803,818,PBS (pH 7.4),100080,0.077,,0.144,PBS (pH 7.4),,,,,,803,10.1021/acsabm.8b00414
1583,4_43,1aa,FALSE,ClC1=C(/C=C/C2=[N+](CCCCCC(O)=O)C3=C(C=C(I)C=C3)C2(C)C)CCC/C1=C\C=C4N(CCCCCC(O)=O)C(C=CC=C5)=C5C\4(C)C,803,819,PBS (pH 7.4),209480,0.071,,0.379,PBS (pH 7.4),,,,,,803,10.1021/acsabm.8b00414
1584,4_44,1bb,FALSE,ClC1=C(/C=C/C2=[N+](CCCCS(=O)([O-])=O)C3=C(C=C(I)C=C3)C2(C)C)CCC/C1=C\C=C4N(CCCCS(=O)([O-])=O)C(C=CC=C5)=C5C\4(C)C,796,812,PBS (pH 7.4),208600,0.072,,0.347,PBS (pH 7.4),,,,,,796,10.1021/acsabm.8b00414
1585,4_45,1ab,FALSE,ClC1=C(/C=C/C2=[N+](CCCCCC(O)=O)C3=C(C=C(I)C=C3)C2(C)C)CCC/C1=C\C=C4N(CCCCS(=O)([O-])=O)C(C=CC=C5)=C5C\4(C)C,812,823,PBS (pH 7.4),211800,0.069,,0.272,PBS (pH 7.4),,,,,,812,10.1021/acsabm.8b00414
1586,4_46,1ac,FALSE,ClC1=C(/C=C/C2=[N+](CCCCCC(O)=O)C3=C(C=C(I)C=C3)C2(C)C)CCC/C1=C\C=C4N(CCC)C(C=CC=C5)=C5C\4(C)C,803,819,PBS (pH 7.4),199960,0.077,,0.403,PBS (pH 7.4),,,,,,803,10.1021/acsabm.8b00414
1587,4_47,1bc,FALSE,ClC1=C(/C=C/C2=[N+](CCCCS(=O)([O-])=O)C3=C(C=C(I)C=C3)C2(C)C)CCC/C1=C\C=C4N(CCC)C(C=CC=C5)=C5C\4(C)C,812,827,PBS (pH 7.4),200240,0.071,,0.449,PBS (pH 7.4),,,,,,812,10.1021/acsabm.8b00414
1588,4_48,2aa,FALSE,ClC1=C(/C=C/C2=[N+](CCCCCC(O)=O)C3=C(C=C(I)C=C3)C2(C)C)CCC/C1=C\C=C4N(CCCCCC(O)=O)C(C=CC(I)=C5)=C5C\4(C)C,794,811,PBS (pH 7.4),229200,0.044,,0.627,PBS (pH 7.4),,,,,,794,10.1021/acsabm.8b00414
1589,4_49,2bb,FALSE,ClC1=C(/C=C/C2=[N+](CCCCS(=O)([O-])=O)C3=C(C=C(I)C=C3)C2(C)C)CCC/C1=C\C=C4N(CCCCS(=O)([O-])=O)C(C=CC(I)=C5)=C5C\4(C)C,812,825,PBS (pH 7.4),252000,0.065,,0.686,PBS (pH 7.4),,,,,,812,10.1021/acsabm.8b00414
1590,4_50,2cc,FALSE,ClC1=C(/C=C/C2=[N+](CCC)C3=C(C=C(I)C=C3)C2(C)C)CCC/C1=C\C=C4N(CCC)C(C=CC(I)=C5)=C5C\4(C)C,813,827,PBS (pH 7.4),148360,0.047,,0.591,PBS (pH 7.4),,,,,,813,10.1021/acsabm.8b00414
1591,4_51,2ab,FALSE,ClC1=C(/C=C/C2=[N+](CCCCCC(O)=O)C3=C(C=C(I)C=C3)C2(C)C)CCC/C1=C\C=C4N(CCCCS(=O)([O-])=O)C(C=CC(I)=C5)=C5C\4(C)C,812,825,PBS (pH 7.4),268560,0.063,,0.79,PBS (pH 7.4),,,,,,812,10.1021/acsabm.8b00414
1592,4_52,2ac,FALSE,ClC1=C(/C=C/C2=[N+](CCCCCC(O)=O)C3=C(C=C(I)C=C3)C2(C)C)CCC/C1=C\C=C4N(CCC)C(C=CC(I)=C5)=C5C\4(C)C,803,816,PBS (pH 7.4),180680,0.069,,0.675,PBS (pH 7.4),,,,,,803,10.1021/acsabm.8b00414
1593,4_53,2bc,FALSE,ClC1=C(/C=C/C2=[N+](CCCCS(=O)([O-])=O)C3=C(C=C(I)C=C3)C2(C)C)CCC/C1=C\C=C4N(CCC)C(C=CC(I)=C5)=C5C\4(C)C,803,819,PBS (pH 7.4),248960,0.062,,0.767,PBS (pH 7.4),,,,,,803,10.1021/acsabm.8b00414
1594,4_54,3bb,FALSE,CC1(C)C(/C=C/C(CCC/2)=C(OC3=CC=C(C([O-])=O)C=C3)C2=C\C=C4N(CCCCS(=O)([O-])=O)C(C=CC(I)=C5)=C5C\4(C)C)=[N+](CCCCS(=O)([O-])=O)C6=C1C=C(I)C=C6,793,816,PBS (pH 7.4),,,,0.382,PBS (pH 7.4),,,,,,793,10.1021/acsabm.8b00414
1595,4_55,5bb,FALSE,CC1(C)C(/C=C/C(CCC/2)=C(SC3=CC=C(C([O-])=O)C=C3)C2=C\C=C4N(CCCCS(=O)([O-])=O)C(C=CC(I)=C5)=C5C\4(C)C)=[N+](CCCCS(=O)([O-])=O)C6=C1C=C(I)C=C6,820,832,PBS (pH 7.4),,,,0.298,PBS (pH 7.4),,,,,,820,10.1021/acsabm.8b00414
1596,4_56,CyI,FALSE,CC1(C)C2=C(C=CC(I)=C2)N(CCC(O)=O)/C1=C/C=C/C=C/C=C/C3=[N+](CCC(O)=O)C4=C(C=C(I)C=C4)C3(C)C,749,830,DMF,,0.48,,0.75,PBS,,,,,,749,10.1021/acsami.9b07694
1597,4_57,Cy7,FALSE,CC1(C)C2=C(C=CC(S(=O)(O)=O)=C2)N(CCC(O)=O)/C1=C/C=C/C=C/C=C/C3=[N+](CC)C4=C(C=C(S(=O)(O)=O)C=C4)C3(C)C,749,776,water,,0.6,,0.1,PBS,,,,,,749,10.1021/acsami.9b07694
1598,4_58,cypate,FALSE,CC1(C)C2=C(C=CC3=C2C=CC=C3)N(CCC(O)=O)/C1=C/C=C/C=C/C=C/C4=[N+](CCC(O)=O)C5=C(C(C=CC=C6)=C6C=C5)C4(C)C,780,804,water,,0.13,,0.17,PBS,,,,,,780,10.1021/acsami.9b07694
1599,4_59,CyO-,FALSE,CC1(C)C(/C=C/C(CCC/2)=C(NC3CC(C)(C)N([O-])C(C)(C)C3)C2=C\C=C4N(CCCCS(=O)(O)=O)C(C=CC=C5)=C5C\4(C)C)=[N+](CCCCS(=O)(O)=O)C6=CC=CC=C61,692,762,PBS,142000,0.1212,,0.1696,ethanol,,,,,,692,10.1016/j.saa.2019.117702
1600,4_60,CyOH,FALSE,CC1(C)C(/C=C/C(CCC/2)=C(NC3CC(C)(C)N(O)C(C)(C)C3)C2=C\C=C4N(CCCCS(=O)(O)=O)C(C=CC=C5)=C5C\4(C)C)=[N+](CCCCS(=O)(O)=O)C6=CC=CC=C61,686,759,PBS,43000,,,0.0198,ethanol,,,,,,686,10.1016/j.saa.2019.117702
1601,4_61,Dye1,FALSE,[O-]C1=C(/C=C2C(C)(C)C(C=CC=C3)=C3N/2C)C(/C1=C\C4=[N+](C)C5=C(C=CC=C5)C4(C)C)=C(C#N)\C#N,668,,acetonitrile ,112202,,,0.01,chloroform,,,,,,668,10.3390/ma13092083
1602,4_62,Dye2,FALSE,[O-]C1=C(/C=C2SC(C=CC=C3)=C3N/2CCCC(OCCCC)=O)C(/C1=C\C4=[N+](C)C5=C(C=CC=C5)C4(C)C)=C(C#N)\C#N,673,,acetonitrile ,85114,,,0.03,chloroform,,,,,,673,10.3390/ma13092083
1603,4_63,Dye3,FALSE,[O-]C1=C(/C=C2SC(C=CC=C3)=C3N/2CCCCCC)C(/C1=C\C4=[N+](C)C5=C(C=CC=C5)C4(C)C)=C(C#N)\C#N,672,,acetonitrile ,109648,,,0.03,chloroform,,,,,,672,10.3390/ma13092083
1604,4_64,Dye4,FALSE,[O-]C1=C(/C=C2SC(C=C(I)C=C3)=C3N/2CCCCCC)C(/C1=C\C4=[N+](C)C5=C(C=CC=C5)C4(C)C)=C(C#N)\C#N,683,,acetonitrile ,117490,,,0.06,chloroform,,,,,,683,10.3390/ma13092083
1605,4_65,Dye5,FALSE,[O-]C1=C(/C=C2[Se]C(C=CC=C3)=C3N/2CCCCCC)C(/C1=C\C4=[N+](C)C5=C(C=CC=C5)C4(C)C)=C(C#N)\C#N,681,,acetonitrile ,114815,,,0.08,chloroform,,,,,,681,10.3390/ma13092083
1606,4_66,4a,FALSE,O=C1/C(C([O-])=C1/C=C2C(C)(C)C(C=CC=C3)=C3N/2C)=C\C4=[N+](C)C5=C(C=CC=C5)C4(C)C,641,,DMSO,245471,,,0.04,chloroform,,,,,,641,10.1016/j.pdpdt.2020.101844
1607,4_67,4b,FALSE,O=C1/C(C([O-])=C1/C=C2C(C)(C)C(C=CC=C3)=C3N/2CC)=C\C4=[N+](CC)C5=C(C=CC=C5)C4(C)C,642,,DMSO,288403,,,0.05,chloroform,,,,,,642,10.1016/j.pdpdt.2020.101844
1608,4_68,5a,FALSE,O=C1/C(C([S-])=C1/C=C2C(C)(C)C(C=CC=C3)=C3N/2C)=C\C4=[N+](C)C5=C(C=CC=C5)C4(C)C,652,,DMSO,114815,,,0.27,chloroform,,,,,,652,10.1016/j.pdpdt.2020.101844
1609,4_69,5b,FALSE,O=C1/C(C([S-])=C1/C=C2C(C)(C)C(C=CC=C3)=C3N/2CC)=C\C4=[N+](CC)C5=C(C=CC=C5)C4(C)C,645,,DMSO,107152,,,0.16,chloroform,,,,,,645,10.1016/j.pdpdt.2020.101844
1610,4_70,6a,FALSE,S=C1/C(C([S-])=C1/C=C2C(C)(C)C(C=CC=C3)=C3N/2C)=C\C4=[N+](C)C5=C(C=CC=C5)C4(C)C,659,,DMSO,120226,,,0.14,chloroform,,,,,,659,10.1016/j.pdpdt.2020.101844
1611,4_71,6b,FALSE,S=C1/C(C([S-])=C1/C=C2C(C)(C)C(C=CC=C3)=C3N/2CC)=C\C4=[N+](CC)C5=C(C=CC=C5)C4(C)C,660,,DMSO,134896,,,0.36,chloroform,,,,,,660,10.1016/j.pdpdt.2020.101844
1612,4_72,"[2,9,16,23-tetrakis(tert-butylsulfanyl)-3,10,17,24-tetrakis(5-carboxypentylamino)]-1,4,8,11,15,18,22,25-(octaaza)phthalocyaninato] magnesium(II) (6)",TRUE,CC(C)(C)SC1=NC2=C3N4[Mg]N5/C(C(N=C(SC(C)(C)C)C(NCCCCCC(O)=O)=N6)=C6/C5=N/C(C7=C/8N=C(NCCCCCC(O)=O)C(SC(C)(C)C)=N7)=NC8=N/3)=N\C9=N/C(C%10=C9N=C(NCCCCCC(O)=O)C(SC(C)(C)C)=N%10)=N\C4=C2N=C1NCCCCCC(O)=O,655,,THF,138600,,,0.18,DMF,,,,,,"655, 595, 464, 379",10.1142/S1088424606000156
1613,4_73,"[2,9,16,23-tetrakis(tert-butylsulfanyl)-3,10,17,24-tetrakis(5-butoxycarbonylpentylamino)]-1,4,8,11,15,18,22,25-(octaaza)-phthalocyaninato] magnesium(II) (9)",TRUE,CC(C)(C)SC1=NC2=C3N4[Mg]N5/C(C(N=C(SC(C)(C)C)C(NCCCCCC(OCCCC)=O)=N6)=C6/C5=N/C(C7=C/8N=C(NCCCCCC(OCCCC)=O)C(SC(C)(C)C)=N7)=NC8=N/3)=N\C9=N/C(C%10=C9N=C(NCCCCCC(OCCCC)=O)C(SC(C)(C)C)=N%10)=N\C4=C2N=C1NCCCCCC(OCCCC)=O,655,,THF,132900,,,0.22,DMF,,,,,,"655, 595, 462, 378  ",10.1142/S1088424606000156
1614,4_74,"[2,9,16,23-tetrakis(tert-butylsulfanyl)-3,10,17,24-tetrakis(5-diethylcarbamoylpentylamino)]-1,4,8,11,15,18,22,25-(octaaza)-phthalocyaninato] magnesium(II) (11)",TRUE,CC(C)(C)SC1=NC2=C3N4[Mg]N5/C(C(N=C(SC(C)(C)C)C(NCCCCCC(N(CC)CC)=O)=N6)=C6/C5=N/C(C7=C/8N=C(NCCCCCC(N(CC)CC)=O)C(SC(C)(C)C)=N7)=NC8=N/3)=N\C9=N/C(C%10=C9N=C(NCCCCCC(N(CC)CC)=O)C(SC(C)(C)C)=N%10)=N\C4=C2N=C1NCCCCCC(N(CC)CC)=O,655,,THF,138900,,,0.22,DMF,,,,,,"655, 596, 475, 379",10.1142/S1088424606000156
1615,4_75,"2,9,16,23-tetrakis(tert-butylsulfanyl)-3,10,17,24-tetrakis(5-diethylcarbamoylpentylamino)]-1,4,8,11,15,18,22,25-(octaaza)-phthalocyanine (12)",FALSE,CC(C)(C)SC1=NC2=C(/N=C3C4=C(N=C(SC(C)(C)C)C(NCCCCCC(N(CC)CC)=O)=N4)C(/N=C5C6=C(N=C(SC(C)(C)C)C(NCCCCCC(N(CC)CC)=O)=N6)/C(N/5)=N/C7=N/C(C8=C7N=C(NCCCCCC(N(CC)CC)=O)C(SC(C)(C)C)=N8)=N\9)=N/3)NC9=C2N=C1NCCCCCC(N(CC)CC)=O,680,,THF,71800,,,0.01,DMF,,,,,,"680, 650, 487, 365",10.1142/S1088424606000156
1616,4_76,"[2,9,16,23-tetrakis(tert-butylsulfanyl)-3,10,17,24-tetrakis(5-diethylcarbamoylpentylamino)]-1,4,8,11,15,18,22,25-(octaaza)-phthalocyaninato] zinc(II) (13)",TRUE,CC(C)(C)SC1=NC2=C(N=C3C4=C(N=C(SC(C)(C)C)C(NCCCCCC(N(CC)CC)=O)=N4)C5=[N]3[Zn]67N8C(C(N=C(SC(C)(C)C)C(NCCCCCC(N(CC)CC)=O)=N9)=C9C8=N5)=NC%10=[N]7C(C%11=C%10N=C(NCCCCCC(N(CC)CC)=O)C(SC(C)(C)C)=N%11)=N%12)N6C%12=C2N=C1NCCCCCC(N(CC)CC)=O,652,,THF,112400,,,0.47,DMF,,,,,,"652, 595, 475, 374",10.1142/S1088424606000156
1617,4_77,14,TRUE,CC(C)(C)SC1=NC2=C(/N=C3C4=C(N=C(SC(C)(C)C)C(SC(C)(C)C)=N4)C(/N=C5C6=C(N=C(SC(C)(C)C)C(SC(C)(C)C)=N6)/C(N/5[Mg]7)=N/C8=N/C(C9=C8N=C(SC(C)(C)C)C(SC(C)(C)C)=N9)=N\%10)=N/3)N7C%10=C2N=C1SC(C)(C)C,651,,THF,,,,0.3,DMF,,,,,,651,10.1142/S1088424606000156
1618,4_78,15,TRUE,CCCCNC1=NC2=C(N=C1NCCCC)/C3=N/C4=N/C(C5=C4N=C(NCCCC)C(NCCCC)=N5)=N\C6=C7C(N=C(NCCCC)C(NCCCC)=N7)=C8N6[Mg]N3/C2=N\C(C9=C/%10N=C(NCCCC)C(NCCCC)=N9)=NC%10=N/8,641,,THF,,,,0.01,DMF,,,,,,641,10.1142/S1088424606000156
1619,4_79,16,TRUE,CC(C)(C)SC1=NC2=C(N=C3C4=C(N=C(SC(C)(C)C)C(SC(C)(C)C)=N4)C5=[N]3[Zn]67N8C(C(N=C(SC(C)(C)C)C(SC(C)(C)C)=N9)=C9C8=N5)=NC%10=[N]7C(C%11=C%10N=C(SC(C)(C)C)C(SC(C)(C)C)=N%11)=N%12)N6C%12=C2N=C1SC(C)(C)C,650,,THF,,,,0.65,DMF,,,,,,650,10.1142/S1088424606000156
1620,4_80,CD（1）,FALSE,CC1(C)C(/C=C/C(CCC/2)=C(SC3=CC=C(N)C=C3)C2=C\C=C4N(CCCCS(=O)(O[Na])=O)C(C=CC5=C6C=CC=C5)=C6C\4(C)C)=[N+](CCCCS(=O)([O-])=O)C7=C1C(C=CC=C8)=C8C=C7,834,874,methanol,,,,0,methanol,,,,,,"400, 660, 834",10.7150/thno.5923
1621,4_81,CD（2）,FALSE,CC1(C)C(/C=C/C(CCC/2)=C(SC3=CC=C(N)C=C3)C2=C\C=C4N(CCCCS(=O)(O[Na])=O)C(C=CC=C5)=C5C\4(C)C)=[N+](CCCCS(=O)([O-])=O)C6=C1C=CC=C6,795,829,methanol,,,,0,methanol,,,,,,,10.7150/thno.5923