,index,name,metal_complex,SMILES,max_absorption_peak,max_emission_peak,solvant_spectrum,molar_extinction_coefficient,quantum_yield_fluorescence,max_phosphorescence_peak,quantum_yield_singlet_oxygen,solvant_quantum_yield,energy_level_exited_triplet_state,energy_level_HUMO,energy_level_LUMO,difference_HOMO_and_LUMO,method_for_HOMO/LUMO,all_absoption_peaks,reference_DOI
477,2_267, haloazaBODIPYs 46,FALSE,F[B]([N]3=C(/C=C/C6=CC=C(OCC[o]CC[o]CC[o]C)C=C6)C(Br)=C(C)C3=C4C5=CC=C(OCCN7N=NC(CNC(CCC(NC8=NN=C(S(=O)(N)=O)S8)=O)=O)=C7)C=C5)(F)N1C4=C(C)C(Br)=C1/C=C/C2=CC=C(OCC[o]CC[o]CC[o]C)C=C2,661,689,DMSO,52700,0.06,,0.6,DMSO,,,,,,,10.1142/S1088424619300234 
478,2_268,PLA-PEG-FA,FALSE,NC2=NC1=C(C(N2)=O)N=C(CNC3=CC=C(C(NC(CCC(NCC4=CN=NN4CCOCCOCCOC(C(C)CO)=O)=O)C(O)=O)=O)C=C3)C=N1,710,775,PBS,,0.01,,0.58,PBS,,,,,,,10.1142/S1088424619300234 
479,2_269,"3,5-pyrrole substituted bromoBODIPY-based photosensitizers 54 ",FALSE,BrC2=CC([N]([B](F)4F)=C2C3=CC=CN3)=C(C6=CC=CC=C6)C1[N]4=C(C5=CC=CN5)C(Br)=C1,682,717,benzene,,,,0.23,benzene,,,,,,,10.1142/S1088424619300234 
480,2_270,"3,5-pyrrole substituted bromoBODIPY-based photosensitizers 55 ",FALSE,BrC2=C(Br)C([N]([B](F)4F)=C2C3=CC=CN3)=C(C6=CC=CC=C6)C1[N]4=C(C5=CC=CN5)C(Br)=C1Br,685,720,benzene,,,,0.39,benzene,,,,,,,10.1142/S1088424619300234 
481,2_271,Ir(III)-bipyridine conjugated BODIPYs 57,TRUE,CC3=[N]([B](F)2F)C(C(C)=C3)=C(C4=CC=C(C#CC5=C[N]([Ir]8([N]%10=C(C%11=CC=CC=C%11%12)C=CC=C%10)%127[N](C=CC=C%13)=C%13C9=C8C=CC=C9)=C(C6=[N]7C=CC=C6)C=C5)C=C4)C1[N]2=C(C)C=C1C,499,514,CH3CN,71400,0.018,,0.97,"CH2Cl2/CH3OH(9:1,v/v)",,,,,,,10.1142/S1088424619300234 
482,2_272,Ir(III)-bipyridine conjugated BODIPYs 58,TRUE,CC3=[N]([B](F)2F)C(C(C)=C3)=C(C4=CC=CC=C4)C1[N]2=C(C)C(C#CC5=C[N]([Ir]8([N]%10=C(C%11=CC=CC=C%11%12)C=CC=C%10)%127[N](C=CC=C%13)=C%13C9=C8C=CC=C9)=C(C6=[N]7C=CC=C6)C=C5)=C1C,527,553,CH3CN,83000,0.003,,0.52,"CH2Cl2/CH3OH(9:1,v/v)",,,,,,,10.1142/S1088424619300234 
483,2_273,Ir(III)-bipyridine conjugated BODIPYs 59,TRUE,CC3=[N]2[B](F)(F)[N]1=C(/C=C/C5=CC=C(OC)C=C5)C=C(C)C1=C(C6=CC=CC=C6)C2C(C)=C3C#CC4=C[N]([Ir]9([N]%11=C(C%12=CC=CC=C%12%13)C=CC=C%11)%138[N](C=CC=C%14)=C%14C%10=C9C=CC=C%10)=C(C7=[N]8C=CC=C7)C=C4,593,616,CH3CN,102900,0.344,,0.53,"CH2Cl2/CH3OH(9:1,v/v)",,,,,,,10.1142/S1088424619300234 
484,2_274,Ir(III)-bipyridine conjugated BODIPYs 60,TRUE,F[B]2(F)[N]1=C(/C=C/C4=CC=C(OC)C=C4)C=C(C)C1=C(C6=CC=CC=C6)C3[N]2=C(/C=C/C5=CC=C(OC)C=C5)C(C#CC7=C[N]([Ir]%10([N]%12=C(C%13=CC=CC=C%13%14)C=CC=C%12)%149[N](C=CC=C%15)=C%15C%11=C%10C=CC=C%11)=C(C8=[N]9C=CC=C8)C=C7)=C3C,650,678,CH3CN,94800,0.184,,0.81,"CH2Cl2/CH3OH(9:1,v/v)",,,,,,,10.1142/S1088424619300234 
485,2_275,Ir(III)-bipyridine conjugated BODIPYs 61,TRUE,CC1=CC=C3N1[B](OCCOCCOCCOC)(OCCOCCOCCOC)[N]2=C(C)C=CC2=C3C%10=C(C)O[Ir]5([N]7=C(C9=C8C=C(F)C=C9F)C=CC=C7)8([O]=C%10C)C4=C(C6=[N]5C=CC=C6)C(F)=CC(F)=C4,517,528,CH3CN,44600,0.08,,0.86,CH3CN,,,,,,,10.1142/S1088424619300234 
486,2_276,Ir(III)-bipyridine conjugated BODIPYs 62,TRUE,CC1=C(C%12=CC=CS%12)C=C3N1[B](OCCOCCOCCOC)(OCCOCCOCCOC)[N]2=C(C)C(C%11=CC=CS%11)=CC2=C3C%10=C(C)O[Ir]5([N]7=C(C9=C8C=C(F)C=C9F)C=CC=C7)8([O]=C%10C)C4=C(C6=[N]5C=CC=C6)C(F)=CC(F)=C4,597,652,CH3CN,33800,0.22,,0.6,CH3CN,,,,,,,10.1142/S1088424619300234 
487,2_277,Ir(III)-bipyridine conjugated BODIPYs 63,TRUE,CC3=[N]([B](F)2F)C(C(C)=C3C#CC(C=C%15)=C[N]%16=C%15C4=[N]([Ir]%17(C%19=C(C%20=CC=CC=[N]%20%21)C=CC=C%19)%21%16C(C=CC=C%22)=C%22C%18=[N]%17C=CC=C%18)C=CC=C4)C(C5=CC=CC=C5)=C1[N]2=C(C)C(C#CC6=C[N]([Ir]9([N]%11=C(C%12=CC=CC=C%12%13)C=CC=C%11)%138[N](C=CC=C%14)=C%14C%10=C9C=CC=C%10)=C(C7=[N]8C=CC=C7)C=C6)=C1C,567,740,CH3CN,106000,0.24,,0.749,CH3CN,,,,,,,10.1142/S1088424619300234 
488,2_278, Ru(II)-bipyridine conjugated BODIPYs 64,TRUE,CC3=[N]([B](F)2F)C(C(C)=C3C#CC(C=C%15)=C[N]%16=C%15C4=[N]([Ru]%17([N]%19=C(C%20=CC=CC=[N]%20%21)C=CC=C%19)%21%16[N](C=CC=C%22)=C%22C%18=[N]%17C=CC=C%18)C=CC=C4)C(C5=CC=CC=C5)=C1[N]2=C(C)C(C#CC6=C[N]([Ru]9([N]%11=C(C%12=CC=CC=[N]%12%13)C=CC=C%11)%138[N](C=CC=C%14)=C%14C%10=[N]9C=CC=C%10)=C(C7=[N]8C=CC=C7)C=C6)=C1C,570,739,CH3CN,113000,,,0.794,CH3CN,,,,,,,10.1142/S1088424619300234 
489,2_279,Re(I)-bipyridine BODIPY complex 67 ,TRUE,CC3=[N]([B](F)2F)C(C(C)=C3)C(C4=CC=C(OCCOCCOC)C=C4)=C1[N]2=C(C)C(C#CC5=C[N]([Re](Cl)([C]=O)([C]=O)7[C]=O)=C(C6=[N]7C=CC=C6)C=C5)=C1C,536,556,"CH2Cl2/CH3OH(9:1,v/v)",91700,0.0013,,0.88,"CH2Cl2/CH3OH(9:1,v/v)",,,,,,,10.1142/S1088424619300234 
490,2_280,BODIPY chromophores with Pt(II) 69,TRUE,CC3=[N]([B](F)2F)C(C(C)=C3C#C[Pt]([P](CCCC)(CCCC)CCCC)([P](CCCC)(CCCC)CCCC)C#CC%11=C(C)C%10=C(C%12=CC=CC=C%12)C4[N]([B](F)(F)[N]%10=C%11C)=C(C)C=C4C)C(C5=CC=CC=C5)=C1[N]2=C(C)C(C#CC(C#CC6=C(C)C8[N]([B](F)(F)[N]7=C(C)C=C(C)C7=C8C9=CC=CC=C9)=C6C)([P](CCCC)(CCCC)CCCC)[P](CCCC)(CCCC)CCCC)=C1C,644,669,toluene,135000,0.0281,,0.76,toluene,,,,,,,10.1142/S1088424619300234 
491,2_281,BODIPY chromophores with Pt(II) 70,TRUE,CC3=[N]([B](F)2F)C(C(C)=C3C#C[Pt]([P](CCCC)(CCCC)CCCC)([P](CCCC)(CCCC)CCCC)C#CC(C=C%12)=CC=C%12C(C%10[N]([B](F)%11F)=C(C)C=C%10C)=C4[N]%11=C(C)C=C4C)C(C5=CC=CC=C5)=C1[N]2=C(C)C(C#CC(C#CC(C=C9)=CC=C9C(C7[N]([B](F)8F)=C(C)C=C7C)=C6[N]8=C(C)C=C6C)([P](CCCC)(CCCC)CCCC)[P](CCCC)(CCCC)CCCC)=C1C,504,,toluene,185500,0.033,,0.78,toluene,,,,,,,10.1142/S1088424619300234 
492,2_282,BODIPY chromophores with Pt(II) 71,TRUE,CC3=[N]([B](F)2F)C(C(C)=C3C#C[Pt]([P](CCCC)(CCCC)CCCC)([P](CCCC)(CCCC)CCCC)C#CC(C=C8)=CC=C8C(C6[N]([B](F)7F)=C(C)C=C6C)=C4[N]7=C(C)C=C4C)C(C5=CC=CC=C5)=C1[N]2=C(C)C=C1C,504,,toluene,104600,0.0066,,0.701,toluene,,,,,,,10.1142/S1088424619300234 
493,2_283,BODIPY chromophores with Pt(II) 72,TRUE,CC3=[N]([B](F)2F)C(C(C)=C3C#C[Pt]%11([N]9=CC=C(C(C)(C)C)C=C9C%10=CC(C(C)(C)C)=CC=[N]%10%11)C#CC(C=C8)=CC=C8C(C6[N]([B](F)7F)=C(C)C=C6C)=C4[N]7=C(C)C=C4C)C(C5=CC=CC=C5)=C1[N]2=C(C)C=C1C,503,,toluene,104600,0.0046,,0.754,toluene,,,,,,,10.1142/S1088424619300234 
494,2_284, BODIPY chromophores with  Au(I) 73,TRUE,CC3=[N]([B](F)2F)C(C(C)=C3)C(C4=CC=CC=C4)=C1[N]2=C(C)C(C#C[Au][P](C6=CC=CC=C6)(C7=CC=CC=C7)C5=CC=CC=C5)=C1C,550,583,CH2Cl2,38000,0.05,,0.84,CH2Cl2,,,,,,,10.1142/S1088424619300234 
495,2_285, BODIPY chromophores with Pt(II) 74,TRUE,F[B]2(F)[N]1=C(/C=C/C4=CC=C(N(C)C)C=C4)C=C(C)C1C(C6=CC=C(C#C[Pt]9%10[N]7=C(C%11=[N]%10C=CC=C%11)C=C(OCCOC%12CC(CO)C(O)C(O)C%12O)C=C7C8=CC=CC=[N]89)C=C6)=C3[N]2=C(/C=C/C5=CC=C(N(C)C)C=C5)C=C3C,715,825,10%DMSO-DMEM,32000,0.026,,0.58,10%DMSO-DMEM,,,,,,,10.1142/S1088424619300234 
496,2_286,orthogonal bisBODIPYs 76,FALSE,CC3=[N]([B](F)2F)C(C(C)=C3)C(C5=[C@]4[N@@]([B](F)(F)N6C5=C(C)C=C6C)=[C@@](C)C=[C@]4C)=C1[N]2=C(C)C=C1C,515,588,CHCl3,20300,0.31,,0.46,CHCl3,,,,,,,10.1142/S1088424619300234 
497,2_287,orthogonal bisBODIPYs 77,FALSE,CC3=[N]([B](F)2F)C(C(C)=C3)C=C1[N]2=C(C)C(C5=[C@]4[N@@]([B](F)(F)N6C5=C(C)C=C6C)=[C@@](C)C=[C@]4C)=C1C,514,527,CHCl3,119400,0.03,,0.51,CHCl3,,,,,,,10.1142/S1088424619300234 
498,2_288,orthogonal bisBODIPYs 79,FALSE,F[B]2(F)[N]1=C(/C=C/C%10=CC=C(OC)C=C%10)C=C(C)C1C=C3[N]2=C(/C=C/C9=CC=C(OC)C=C9)C(C5=C4[N]([B](F)(F)N6C5=C(C)C=C6/C=C/C7=CC=C(OC)C=C7)=C(/C=C/C8=CC=C(OC)C=C8)C=C4C)=C3C,661,680,CHCl3,125300,0.06,,0.06,CHCl3,,,,,,,10.1142/S1088424619300234 
499,2_289,BODIPY 88,FALSE,F[B]2(F)[N]1=C(C)C=C(C)C1C(C4=CC=C(N(CCO)C)C=C4)=C3[N]2=C(C)C=C3C,490,514,isopropanol,77600,0.002,,0.041,isopropanol,,,,,,,10.1142/S1088424619300234 
500,2_290,single-chromophore-based BODIPY 89,FALSE,F[B]([N]2=C(C)C(CC)=C(C)C2=C3COC(CCCC4=CC=C(N(CCCl)CCCl)C=C4)=O)(F)N1C3=C(C)C(CC)=C1C,552,557,Na2HPO4-NaH2PO4 buffer solutoin,,0.47,,0.55,Na2HPO4-NaH2PO4 buffer solutoin,,,,,,,10.1142/S1088424619300234 
501,2_291,heavy-atom-free BODIPY-anthracene dyads 90,FALSE,F[B]([N]2=C(C)C=C(C)C2=C3[C@@]5=[C@](C=CC=C6)[C@]6=C[C@@]4=CC=CC=[C@]45)(F)N1C3=C(C)C=C1C,504,,EtOH,,0.005,,0.67,EtOH,,,,,,,10.1142/S1088424619300234 
502,2_292,heavy-atom-free BODIPY-anthracene dyads 91,FALSE,F[B]([N]2=C(C)C=CC2=C3[C@@]5=[C@](C=CC=C6)[C@]6=C[C@@]4=CC=CC=[C@]45)(F)N1C3=CC=C1C,515,,EtOH,,0.001,,0.38,EtOH,,,,,,,10.1142/S1088424619300234 
503,2_293,heavy-atom-free BODIPY-anthracene dyads 92,FALSE,F[B]([N]2=C(C)C=C(C)C2=C3[C@@]4=C(C=CC5=CC=C[C@](C=C7)=[C@@]56)[C@]6=C7C=C4)(F)N1C3=C(C)C=C1C,502,512,EtOH,,0.7,,0.34,EtOH,,,,,,,10.1142/S1088424619300234 
504,2_294,heavy-atom-free BODIPY-anthracene dyads 93,FALSE,F[B]([N]2=C(C)C=C(C)C2=C3C4=CC=C(N(C)C)C=C4)(F)N1C3=C(C)C=C1C,500,511,THF,,0.014,,0.623,THF,,,,,,,10.1142/S1088424619300234 
505,2_295,heavy-atom-free BODIPY-anthracene dyads 94,FALSE,F[B]([N]2=C(C)C=C(C)C2=C3C4=CC=C(N5CCCCC5)C=C4)(F)N1C3=C(C)C=C1C,499,515,THF,,0.008,,0.612,THF,,,,,,,10.1142/S1088424619300234 
506,2_296,heavy-atom-free BODIPY-anthracene dyads 95,FALSE,F[B]([N]2=C(C)C=C(C)C2=C3C4=CC=C(N5CCOCC5)C=C4)(F)N1C3=C(C)C=C1C,500,514,THF,,0.011,,0.535,THF,,,,,,,10.1142/S1088424619300234 
507,2_297,heavy-atom-free BODIPY-anthracene dyads 96,FALSE,F[B]([N]2=C(C)C=C([O]5C)C2=C3C4=C5C=CC=C4)(F)N1C3=C(C)C=C1C,499,512,CH3CN,,0.57,,0.18,CH3CN,,,,,,,10.1142/S1088424619300234 
508,2_298,heavy-atom-free BODIPY-anthracene dyads 97,FALSE,F[B]([N]2=C(C)C=C([O]6C)C2=C3C4=C6C=CC=C4[OMe]5)(F)N1C3=C5C=C1C,500,513,CH3CN,,0.54,,0.18,CH3CN,,,,,,,10.1142/S1088424619300234 
509,2_299,heavy-atom-free BODIPY-anthracene dyads 98,FALSE,F[B]([N]2=C(C)C=C([O]6C)C2=C3C4=C6C=C(OC)C=C4[OMe]5)(F)N1C3=C5C=C1C,501,513,CH3CN,,0.55,,0.31,CH3CN,,,,,,,10.1142/S1088424619300234 
510,2_300,dimethylaminostyryl BODIPY-C60 conjugates 110,FALSE,F[B]([N]3=C(C)C(C6=CC=C(C%19C%11=CC%22=C%10C%21=C9C8=C%20C7=C(C%23=C%20C%21=C%22C=C%23)C=CC%12=C7C%13=C8C%15=C9C%17=C%10C(CN%19C)%11=C%18C=CC%16=C%14C=CC%12=C%13C%14=C%15C%16=C%17%18)C=C6)=C(C)C3=C4C5=CC=CC=C5)(F)N1C4=C(C)C=C1/C=C/C2=CC=C(N(C)C)C=C2,573,591,toluene,120000,0.003,,0.019,toluene,,,,,,,10.1142/S1088424619300234 
511,2_301,dimethylaminostyryl BODIPY-C60 conjugates 111,FALSE,F[B]([N]3=C(/C=C/C6=CC=C(N(C)C)C=C6)C(C7=CC=C(C%20C%12=CC%23=C%11C%22=C%10C9=C%21C8=C(C%24=C%21C%22=C%23C=C%24)C=CC%13=C8C%14=C9C%16=C%10C%18=C%11C(CN%20C)%12=C%19C=CC%17=C%15C=CC%13=C%14C%15=C%16C%17=C%18%19)C=C7)=C(C)C3=C4C5=CC=CC=C5)(F)N1C4=C(C)C=C1/C=C/C2=CC=C(N(C)C)C=C2,627,644,toluene,109000,0.004,,0.011,toluene,,,,,,,10.1142/S1088424619300234 
512,2_302,dimethylaminostyryl BODIPY-C60 conjugates 112,FALSE,F[B]([N]3=C(/C=C/C6=CC=C(N(C)C)C=C6)C=C(C)C3=C4C5=CC=C(CCN%25C=C(CCOC%26=CC=C(C(C%28=C(C)C=CN%28[B](F)%29F)=C%27[N]%29=CC=C%27C)C=C%26)N=N%25)C=C5)(F)N1C4=C(C)C(C7=CC=C(C(N(C)CC%11=CC%18=C(C%20=C%21C%22=C%23%24)C%17=C%12C%21=C%13C%23=C%14%15)C%11%20=C%22C=CC%24=C%14C=CC8=C%15C%10=C%13C%12=C%16C9=C(C%19=C%16C%17=C%18C=C%19)C=CC8=C9%10)C=C7)=C1/C=C/C2=CC=C(N(C)C)C=C2,627,637,toluene,97000,0.004,,0.001,toluene,,,,,,,10.1142/S1088424619300234 
513,2_303,Temoporfin,FALSE,OC1=CC=CC(/C(C7=N/C(CC7)=C5C6=CC(O)=CC=C6)=C(C=C4)/N/C4=C(C9=CC(O)=CC=C9)\C(C=C3)=N/C3=C(C8=CC(O)=CC=C8)\C2=CC=C\5N2)=C1,650,655,EtOH,39000,,,0.31,PBS + 10% FCS,,,,,,,10.1039/c2cs35216h
514,2_236,Verteporfin,FALSE,CC(C(\C=C(C(C=C)=C6C)/N/C6=C\C(C4=CC=C(C(OC)=O)C(C(OC)=O)C45C)=N/C5=C3)=N2)=C(CCC(O)=O)/C2=C/C1=C(CCC(OC)=O)C(C)=C\3N1,688,694,PBS +2% TX100,31200,,,0.82,PB + 1% TX100,,,,,,,10.1039/c2cs35216h
515,2_305,Talaporfin,FALSE,CC1=C(CC)C\4=N/C1=C\C2=C(C=C)C(C)=C(\C=C3/N=C(\C(CC(NC(CC(O)=O)C(O)=O)=O)=C(C(C(O)=O)=C5C)/N/C5=C4)C(CCC(O)=O)C3C)N2,654,660,PBS,40000,,,0.77,D2O,,,,,,,10.1039/c2cs35216h
516,2_305,Ce6,FALSE,CC1=C(CC)C\4=N/C1=C\C2=C(C=C)C(C)=C(\C=C3/N=C(\C(CC(NC(CC(O)=O)C(O)=O)=O)=C(C(C(O)=O)=C5C)/N/C5=C4)C(CCC(O)=O)C3C)N2,663,662,PBS,38000,,,0.75,PB,,,,,,,10.1039/c2cs35216h
517,2_307,Tetramethyl-BODIPY,FALSE,CC2=CC(C)=[N](C2=C3)[B@](F)(F)N1C3=C(C)C=C1C,502,508,MeOH,120000,,,0.7,MeOH,,,,,,,10.1039/c2cs35216h
518,2_308,iodinated BODIPYs 2,FALSE,CC2=C(I)C(C)=[N](C2=C3)[B@](F)(F)N1C3=C(C)C(I)=C1C,534,548,MeOH,110000,,,0.02,MeOH,,,,,,,10.1039/c2cs35216h
519,2_309,iodinated BODIPYs 3,FALSE,CC2=C(I)C(C)=[N](C2=C3CCC(O)=O)[B@](F)(F)N1C3=C(C)C(I)=C1C,525,540,MeOH,93000,,,0.03,MeOH,,,,,,,10.1039/c2cs35216h
520,2_310,iodinated BODIPYs 4,FALSE,F[B@@]([N]2=CC(I)=CC2=C3C4=CC=C(C)C=C4)(F)N1C3=CC(I)=C1,548.5,567.5,c-hexane,43000,,,0.012,c-hexane,,,,,,,10.1039/c2cs35216h
521,2_311,iodinated BODIPYs 5,FALSE,F[B@@]([N]2=C(I)C(I)=CC2=C3C4=CC=C(C)C=C4)(F)N1C3=CC(I)=C1,563.5,577.5,c-hexane,48000,,,0.06,c-hexane,,,,,,,10.1039/c2cs35216h
522,2_312,iodinated BODIPYs 6,FALSE,F[B@@]([N]2=C(I)C(I)=CC2=C3C4=CC=C(C)C=C4)(F)N1C3=CC(I)=C1I,581,593,c-hexane,116000,,,0.099,c-hexane,,,,,,,10.1039/c2cs35216h
523,2_313,iodinated BODIPYs 7,FALSE,F[B@@]([N]2=C(/C=C/C5=CC=C(N(C)C)C=C5)C(I)=C(C)C2=C3C4=CC=CC=C4)(F)N1C3=C(C)C(I)=C1C,629,706,toluene,72800,,,0.095,toluene,,,,,,,10.1039/c2cs35216h
524,2_314,iodinated BODIPYs 8,FALSE,F[B@@]([N]2=C(C)C(C#CC#CC5=C(C)N([B@@](F)(F)[N]6=C(C)C(I)=C(C)C6=C7C8=CC=CC=C8)C7=C5C)=C(C)C2=C3C4=CC=CC=C4)(F)N1C3=C(C)C(I)=C1C,576,623,toluene,180000,,,0.11,toluene,,,,,,,10.1039/c2cs35216h
525,2_315,iodinated BODIPYs 9,FALSE,F[B@@]([N]2=C(C)C(C#CC5=C(C)N([B@@](F)(F)[N]6=C(C)C(I)=C(C)C6=C7C8=CC=CC=C8)C7=C5C)=C(C)C2=C3C4=CC=CC=C4)(F)N1C3=C(C)C(I)=C1C,575,646,toluene,90900,,,0.093,toluene,,,,,,575618,10.1039/c2cs35216h
526,2_316,BODIPYs 10,FALSE,F[B@@]([N]2=C(C)C(C5=CC=C(I)S5)=C(C)C2=C3C4=CC=CC=C4)(F)N1C3=C(C)C(I)=C1C,532,609,toluene,69700,,,0.075,toluene,,,,,,,10.1039/c2cs35216h
527,2_317,BODIPYs 11,FALSE,F[B@@]([N]2=C(C)C(C5=CC=C(I)S5)=C(C)C2=C3C4=CC=CC=C4)(F)N1C3=C(C)C(C6=CC=C(I)S6)=C1C,526,612,toluene,49000,,,0.012,toluene,,,,,,,10.1039/c2cs35216h
528,2_318,BODIPYs 12,FALSE,F[B@@]([N]3=C(C(Br)=C(C6=CC=C(OC)C=C6)S5)C5=CC3=C4C(F)(F)F)(F)N1C4=CC2=C1C(Br)=C(C7=CC=C(OC)C=C7)S2,720,754,CH3Cl,89000,,,0.45,CH3Cl,,,,,,,10.1039/c2cs35216h
529,2_319,BODIPYs 13,FALSE,F[B@@]([N]3=C(C(Br)=C(C6=CC=C(OC)C=C6)S5)C5=C(Br)C3=C4C(F)(F)F)(F)N1C4=C(Br)C2=C1C(Br)=C(C7=CC=C(OC)C=C7)S2,766,820,CH3Cl,75000,,,0.11,CH3Cl,,,,,,,10.1039/c2cs35216h
530,2_320,BODIPYs 15,FALSE,F[B@@]([N]3=C(/C=C/C6=CC(OCCOCCOCCOC)=C(OCCOCCOCCOC)C(OCCOCCOCCOC)=C6)C(I)=C(Br)C3=C4C5=CC(OCCOCCOCCOC)=C(OCCOCCOCCOC)C(OCCOCCOCCOC)=C5)(F)N1C4=C(Br)C(I)=C1/C=C/C2=CC(OCCOCCOCCOC)=C(OCCOCCOCCOC)C(OCCOCCOCCOC)=C2,667,703,DMF,70795,,,0.09,DMF,,,,,,,10.1039/c2cs35216h
531,2_321,BODIPYs 16,FALSE,F[B@@]([N]3=C(/C=C/C6=CC=C(OCCN(C)C)C=C6)C(I)=CC3=C4C5=CC=C(OCCOCCOCCOC)C=C5)(F)N1C4=CC(I)=C1/C=C/C2=CC(OCCOCCOCCOC)=C(OCCOCCOCCOC)C=C2,665,695,DMF,81283,,,0.18,DMF,,,,,,,10.1039/c2cs35216h
532,2_322,Aza-BODIPYs 18,FALSE,F[B@@]([N]3=C(C5=CC=C(OC)C=C5)C(Br)=C(C7=CC=CC=C7)C3=N4)(F)N1C4=C(C6=CC=CC=C6)C(Br)=C1C2=CC=C(OC)C=C2,679,714,CHCl3,75000,,,0.1,CHCl3,,,,,,,10.1039/c2cs35216h
533,2_323,Aza-BODIPYs 20,FALSE,F[B@@]([N]3=C(C5=CC=C(OC)C=C5)C=C(C7=CC=C(C[N+](CC)(C)CC)C=C7)C3=N4)(F)N1C4=C(C6=CC=C(C[N+](CC)(CC)C)C=C6)C=C1C2=CC=C(OC)C=C2,702,732,CHCl3,69000,,,0.22,CHCl3,,,,,,,10.1039/c2cs35216h
534,2_324,Aza-BODIPYs 21,FALSE,F[B@@]([N]3=C(C5=CC=C(OC)C=C5)C(Br)=C(C7=CC=C(C[N+](CC)(C)CC)C=C7)C3=N4)(F)N1C4=C(C6=CC=C(C[N+](CC)(CC)C)C=C6)C(Br)=C1C2=CC=C(OC)C=C2,681,722,CHCl3,64000,,,0.1,CHCl3,,,,,,,10.1039/c2cs35216h
535,2_325,bisBODIPY  26,FALSE,F[B@@]([N]2=C(C)C(C(C5=C(C)C=C(C)N5[B@@](F)6F)=C4[N]6=C(C)C=C4C)=C(C)C2=C3)(F)N1C3=C(C)C=C1C,514,527,CHCl3,119400,,,0.03,CHCl3,,,,,,,10.1039/c2cs35216h
536,2_326,BODIPY derivative 27,FALSE,F[B@@]([N]3=C(/C=C/C6=CC=C(C%21=CC=C(C%39N(C)CC%40=CC%55=C%38C%54=C%37C%36=C%53C%35=C(C%56=C%53C%54=C%55C=C%56)C=CC%41=C%35C%42=C%36C%44=C%37C%46=C%38C%39%40=C%47C=CC%45=C%43C=CC%41=C%42C%43=C%44C%45=C%46%47)C=C%21)C=C6)C=C(C)C3=C4C5=CC=C(C7=CC=C(C%12N(C)CC%13=CC%51=C%11C%50=C%10C9=C%49C8=C(C%52=C%49C%50=C%51C=C%52)C=CC%14=C8C%15=C9C%17=C%10C%19=C%11C%12%13=C%20C=CC%18=C%16C=CC%14=C%15C%16=C%17C%18=C%19%20)C=C7)C=C5)(F)N1C4=C(C)C=C1/C=C/C2=CC=C(C%22=CC=C(C%48C%27=CC%59=C%26C%58=C%25C%24=C%57C%23=C(C%60=C%57C%58=C%59C=C%60)C=CC%28=C%23C%29=C%24C%31=C%25C%33=C%26C(CN%48C)%27=C%34C=CC%32=C%30C=CC%28=C%29C%30=C%31C%32=C%33%34)C=C%22)C=C2,657,667,toluene,64600,,,0.009,toluene,,,,,,,10.1039/c2cs35216h
537,2_327,BODIPY 6,FALSE,BrC3=C(C)C2=C(C5=CC=CC=C5)C1=C(C)C(Br)=C(/C=C/C6=CC=[N+](C)C=C6)N1[B-](F)(F)[N+]2=C3/C=C/C4=CC=[N+](C)C=C4.[I-].[I-],648,680, acetonitrile,45000,0.095,,0.1,PBS,,,,,,,10.1002/cphc.201200224
538,2_328,BODIPY 7,FALSE,IC3=C(C)C2=C(C5=CC=CC=C5)C1=C(C)C(I)=C(/C=C/C6=CC=[N+](C)C=C6)N1[B-](F)(F)[N+]2=C3/C=C/C4=CC=[N+](C)C=C4.[I-].[I-],649,686, acetonitrile,56000,0.014,,0.22,PBS,,,,,,,10.1002/cphc.201200224
539,2_329,SNBDP,FALSE,IC3=C(C)C2=C(C6=CC=C(OCCCCCCO)C=C6)C1=C(C)C(I)=C(/C=C/C5=CC=C(OC)C=C5)N1[B-](F)(F)[N+]2=C3/C=C/C4=CC=C(OC)C=C4,658,694,THF,,0.1,,,,,-4.82,-2.67,-2.15,theoretical,,10.1016/j.dyepig.2020.108348
540,2_330,BODIPY derivatives 2,FALSE,CC2=CC(/C=C/C5=CC=CC=C5)=[N](C2=C3C4=CC=CC=C4)[B](F)(F)N1C3=C(C)C=C1C,561,,hexane,72000,0.73,,,,,-5.32,-3.12,-2.2,electrochemistry,,10.1039/c1cp21038f
541,2_330,BODIPY derivatives 2,FALSE,CC2=CC(/C=C/C5=CC=CC=C5)=[N](C2=C3C4=CC=CC=C4)[B](F)(F)N1C3=C(C)C=C1C,560,,acetonitrile,71000,0.7,,,,,-5.14,-2.61,-2.53,theoretical,,10.1039/c1cp21038f
542,2_330,BODIPY derivatives 2,FALSE,CC2=CC(/C=C/C5=CC=CC=C5)=[N](C2=C3C4=CC=CC=C4)[B](F)(F)N1C3=C(C)C=C1C,562,,ethanol,73000,0.7,,,,,-5.14,-2.61,-2.53,theoretical,,10.1039/c1cp21038f
543,2_331,BODIPY derivatives 3,FALSE,CC2=CC(/C=C/C5=CC(C(CCCC)7CCCC)=C(C6=C7C=CC=C6)C=C5)=[N](C2=C3C4=CC=CC=C4)[B](F)(F)N1C3=C(C)C=C1C,571,,hexane,85000,0.71,,,,,-5.21,-3.04,-2.17,electrochemistry,,10.1039/c1cp21038f
544,2_331,BODIPY derivatives 3,FALSE,CC2=CC(/C=C/C5=CC(C(CCCC)7CCCC)=C(C6=C7C=CC=C6)C=C5)=[N](C2=C3C4=CC=CC=C4)[B](F)(F)N1C3=C(C)C=C1C,572,,acetonitrile,92000,0.68,,,,,-5,-2.58,-2.42,theoretical,,10.1039/c1cp21038f
545,2_331,BODIPY derivatives 3,FALSE,CC2=CC(/C=C/C5=CC(C(CCCC)7CCCC)=C(C6=C7C=CC=C6)C=C5)=[N](C2=C3C4=CC=CC=C4)[B](F)(F)N1C3=C(C)C=C1C,573,,ethanol,81000,0.68,,,,,-5,-2.58,-2.42,theoretical,,10.1039/c1cp21038f
546,2_332,BODIPY derivatives 4,FALSE,CC2=CC(/C=C/C5=CC=C(N(C7=CC=CC=C7)C6=CC=CC=C6)C=C5)=[N](C2=C3C4=CC=CC=C4)[B](F)(F)N1C3=C(C)C=C1C,591,,hexane,63000,0.59,,,,,-4.94,-2.83,-2.11,electrochemistry,,10.1039/c1cp21038f
547,2_332,BODIPY derivatives 4,FALSE,CC2=CC(/C=C/C5=CC=C(N(C7=CC=CC=C7)C6=CC=CC=C6)C=C5)=[N](C2=C3C4=CC=CC=C4)[B](F)(F)N1C3=C(C)C=C1C,587,,acetonitrile,65000,0.03,,,,,-4.73,-2.91,-1.82,theoretical,,10.1039/c1cp21038f
548,2_332,BODIPY derivatives 4,FALSE,CC2=CC(/C=C/C5=CC=C(N(C7=CC=CC=C7)C6=CC=CC=C6)C=C5)=[N](C2=C3C4=CC=CC=C4)[B](F)(F)N1C3=C(C)C=C1C,589,,ethanol,54000,0.15,,,,,-4.73,-2.91,-1.82,theoretical,,10.1039/c1cp21038f
549,2_333,BODIPY derivatives 5,FALSE,CC2=CC(/C=C/C5=CC=C(N(C)C(C)(C)CC6C)C6=C5)=[N](C2=C3C4=CC=CC=C4)[B](F)(F)N1C3=C(C)C=C1C,607,,hexane,140000,0.48,,,,,-4.74,-2.7,-2.04,electrochemistry,,10.1039/c1cp21038f
550,2_333,BODIPY derivatives 5,FALSE,CC2=CC(/C=C/C5=CC=C(N(C)C(C)(C)CC6C)C6=C5)=[N](C2=C3C4=CC=CC=C4)[B](F)(F)N1C3=C(C)C=C1C,612,,acetonitrile,101000,0.08,,,,,-4.54,-2.31,-2.23,theoretical,,10.1039/c1cp21038f
551,2_333,BODIPY derivatives 5,FALSE,CC2=CC(/C=C/C5=CC=C(N(C)C(C)(C)CC6C)C6=C5)=[N](C2=C3C4=CC=CC=C4)[B](F)(F)N1C3=C(C)C=C1C,612,,ethanol,113000,0.04,,,,,-4.54,-2.31,-2.23,theoretical,,10.1039/c1cp21038f
552,2_334,BODIPY derivatives 6,FALSE,CC2=CC(/C=C/C5=CC(N(CCCC)C7=C6C=CC=C7)=C6C=C5)=[N](C2=C3C4=CC=CC=C4)[B](F)(F)N1C3=C(C)C=C1C,582,,hexane,157000,0.67,,,,,-5.03,-2.91,-2.12,electrochemistry,,10.1039/c1cp21038f
553,2_334,BODIPY derivatives 6,FALSE,CC2=CC(/C=C/C5=CC(N(CCCC)C7=C6C=CC=C7)=C6C=C5)=[N](C2=C3C4=CC=CC=C4)[B](F)(F)N1C3=C(C)C=C1C,582,,acetonitrile,131000,0.63,,,,,-4.84,-2.45,-2.39,theoretical,,10.1039/c1cp21038f
554,2_334,BODIPY derivatives 6,FALSE,CC2=CC(/C=C/C5=CC(N(CCCC)C7=C6C=CC=C7)=C6C=C5)=[N](C2=C3C4=CC=CC=C4)[B](F)(F)N1C3=C(C)C=C1C,584,,ethanol,122000,0.64,,,,,-4.84,-2.45,-2.39,theoretical,,10.1039/c1cp21038f
555,2_335,SBDPiR690,FALSE,F[B]2(F)[N]1=C5C(SC(C7=CC=C([H])C=C7)=C5)=CC1=C(C(F)(F)F)C3=CC4=C(C=C(C6=CC=C([H])C=C6)S4)N23,688,,CH2Cl2,120000,0.22,,0.42,,,-5.17,-3.45,-1.72,electrochemistry,,10.1002/asia.201500140
556,2_336,SBDPiR688,FALSE,F[B]2(F)[N]1=C5C(SC(C7=CC=C(C(F)(F)F)C=C7)=C5)=CC1=C(C(F)(F)F)C3=CC4=C(C=C(C6=CC=C(C(F)(F)F)C=C6)S4)N23,688,,CH2Cl2,211000,0.39,,0.47,,,-5.32,-3.62,-1.7,electrochemistry,,10.1002/asia.201500140