,index,name,metal_complex,SMILES,max_absorption_peak,max_emission_peak,solvant_spectrum,molar_extinction_coefficient,quantum_yield_fluorescence,max_phosphorescence_peak,quantum_yield_singlet_oxygen,solvant_quantum_yield,energy_level_exited_triplet_state,energy_level_HUMO,energy_level_LUMO,difference_HOMO_and_LUMO,method_for_HOMO/LUMO,all_absoption_peaks,reference_DOI
1466,3_254,H2P-2t,FALSE,C1(/C=C(C=C/2)\NC2=C3\C4=CC=CC=C4)=N/C(C=C1)=C(C5=CC=CC=C5)\C6=CC=C(/C=C7C=CC3=N/7)N6,408,698,toluene,,0.071,,,,,-6.867,-1.343,-5.524,theoretical,"408, 502, 536, 576, 631 ", 10.1021/acs.jpca.6b09483
1467,3_254,H2P-2t,FALSE,C1(/C=C(C=C/2)\NC2=C3\C4=CC=CC=C4)=N/C(C=C1)=C(C5=CC=CC=C5)\C6=CC=C(/C=C7C=CC3=N/7)N6,405,697,DMF,,0.084,,,,,-6.867,-1.343,-5.524,theoretical,"405, 501, 534, 574, 629 ", 10.1021/acs.jpca.6b09483
1468,3_255,H2P-3,FALSE,C1(/C=C(C=C/2)\NC2=C3\C4=CC=CC=C4)=N/C(C=C1)=C(C5=CC=CC=C5)\C6=CC=C(/C(C7=CC=CC=C7)=C8C=CC3=N/8)N6,413,707,toluene,,0.073,,,,,-6.818,-1.332,-5.486,theoretical,"413, 508, 541, 583, 640 ", 10.1021/acs.jpca.6b09483
1469,3_255,H2P-3,FALSE,C1(/C=C(C=C/2)\NC2=C3\C4=CC=CC=C4)=N/C(C=C1)=C(C5=CC=CC=C5)\C6=CC=C(/C(C7=CC=CC=C7)=C8C=CC3=N/8)N6,411,706,DMF,,0.085,,,,,-6.818,-1.332,-5.486,theoretical,"411, 507, 541, 582, 637 ", 10.1021/acs.jpca.6b09483
1470,3_256,H2P-4,FALSE,C1(/C(C2=CC=CC=C2)=C(C=C/3)\NC3=C4\C5=CC=CC=C5)=N/C(C=C1)=C(C6=CC=CC=C6)\C7=CC=C(/C(C8=CC=CC=C8)=C9C=CC4=N/9)N7,419,648,toluene,,0.09,,,,,-6.79,-1.324,-5.466,theoretical,"419, 514, 548, 591, 647 ", 10.1021/acs.jpca.6b09483
1471,3_256,H2P-4,FALSE,C1(/C(C2=CC=CC=C2)=C(C=C/3)\NC3=C4\C5=CC=CC=C5)=N/C(C=C1)=C(C6=CC=CC=C6)\C7=CC=C(/C(C8=CC=CC=C8)=C9C=CC4=N/9)N7,417,649,DMF,,0.09,,,,,-6.79,-1.324,-5.466,theoretical,"417, 514, 548, 589, 645", 10.1021/acs.jpca.6b09483
1472,3_257,H2C4P,FALSE,FC1=C(F)C(NCC2OCCOCCOCCOCCOC2)=C(F)C(F)=C1/C(C(C=C/3)=NC3=C4\C5=C(F)C(F)=C(NCC6OCCOCCOCCOCCOC6)C(F)=C5F)=C(N/7)\C=CC7=C(C8=C(F)C(F)=C(NCC9COCCOCCOCCOCCO9)C(F)=C8F)\C%10=N/C(C=C%10)=C(C%11=C(F)C(F)=C(NCC%12OCCOCCOCCOCCOC%12)C(F)=C%11F)\C%13=CC=C4N%13,420,710, ethanol,,0.06,,0.62,ethanol,,,,,,"420, 510, 552, 589, 649 ",10.1562/2004-11-29-RA-382R2.1
1473,3_258,ZnC4P,TRUE,FC1=C(F)C(NCC2OCCOCCOCCOCCOC2)=C(F)C(F)=C1/C(C(C=C/3)=NC3=C4\C5=C(F)C(F)=C(NCC6OCCOCCOCCOCCOC6)C(F)=C5F)=C7C=C/C8=C(C9=C(F)C(F)=C(NCC%10COCCOCCOCCOCCO%10)C(F)=C9F)/C%11=N/C(C=C%11)=C(C%12=C(F)C(F)=C(NCC%13OCCOCCOCCOCCOC%13)C(F)=C%12F)\C%14=CC=C4N%14[Zn]N\78,425,650, ethanol,,0.04,,0.46,ethanol,,,,,,"425, 554, 618 ",10.1562/2004-11-29-RA-382R2.1
1474,3_259,TPP(m-O-Glu)3,FALSE,O[C@H]([C@@H](CO)O[C@@H](OC1=CC(/C2=C3C=CC(/C(C4=CC=CC=C4)=C(N/5)/C=CC5=C(C6=CC=CC(O[C@@H]([C@@H]7O)O[C@H](CO)[C@@H](O)C7[H])=C6)\C8=N/C(C=C8)=C(C9=CC=CC(O[C@@H]([C@@H]%10O)O[C@H](CO)[C@@H](O)C%10[H])=C9)\C%11=CC=C2N%11)=N\3)=CC=C1)[C@@H]%12O)C%12[H],415,,methanol,52000,0.06,,0.43, deuterated ethanol,,,,,,,10.1016/j.jphotobiol.2005.05.013
1475,3_260,TPC(m-O-Glu)3,FALSE,O[C@H]([C@@H](CO)O[C@@H](OC1=CC(/C2=C3CCC(/C(C4=CC=CC=C4)=C(N/5)/C=CC5=C(C6=CC=CC(O[C@@H]([C@@H]7O)O[C@H](CO)[C@@H](O)C7[H])=C6)\C8=N/C(C=C8)=C(C9=CC=CC(O[C@@H]([C@@H]%10O)O[C@H](CO)[C@@H](O)C%10[H])=C9)\C%11=CC=C2N%11)=N\3)=CC=C1)[C@@H]%12O)C%12[H],420,,methanol,37500,0.18,,0.46, deuterated ethanol,,,,,,,10.1016/j.jphotobiol.2005.05.013
1476,3_261,PpIX,FALSE,CC1=C(/C=C2N=C(/C=C(C(CCC(O)=O)=C/3C)\NC3=C/4)C(CCC(O)=O)=C\2C)NC(/C=C5C(C)=C(C=C)C4=N/5)=C1C=C,409,,Toluene,143590,0.09,,0.68,Toluene,,,,,,"409, 506, 540, 577, 632 ",10.3390/ph14020138
1477,3_261,PpIX,FALSE,CC1=C(/C=C2N=C(/C=C(C(CCC(O)=O)=C/3C)\NC3=C/4)C(CCC(O)=O)=C\2C)NC(/C=C5C(C)=C(C=C)C4=N/5)=C1C=C,402,,EtOH,142440,0.08,,0.92,EtOH,,,,,,"402, 503, 537, 575, 629 ",10.3390/ph14020138
1478,3_261,PpIX,FALSE,CC1=C(/C=C2N=C(/C=C(C(CCC(O)=O)=C/3C)\NC3=C/4)C(CCC(O)=O)=C\2C)NC(/C=C5C(C)=C(C=C)C4=N/5)=C1C=C,401,,MeOH ,139797,0.07,,0.92,MeOH ,,,,,,"401, 502, 537, 574, 628 ",10.3390/ph14020138
1479,3_262,Ppa,FALSE,CC1=C(/C=C2N=C(C(CC3=O)=C(C3=C/4C)NC4=C/5)[C@@H](CCC(O)=O)[C@@H]\2C)NC(/C=C6C(C)=C(CC)C5=N/6)=C1C=C,415,,Toluene,107765,0.39,,0.49,Toluene,,,,,,"415, 510, 539, 612, 671 ",10.3390/ph14020138
1480,3_262,Ppa,FALSE,CC1=C(/C=C2N=C(C(CC3=O)=C(C3=C/4C)NC4=C/5)[C@@H](CCC(O)=O)[C@@H]\2C)NC(/C=C6C(C)=C(CC)C5=N/6)=C1C=C,411,,EtOH,92874,0.39,,0.53,EtOH,,,,,,"411, 509, 539, 609, 667 ",10.3390/ph14020138
1481,3_262,Ppa,FALSE,CC1=C(/C=C2N=C(C(CC3=O)=C(C3=C/4C)NC4=C/5)[C@@H](CCC(O)=O)[C@@H]\2C)NC(/C=C6C(C)=C(CC)C5=N/6)=C1C=C,409,,MeOH ,94334,0.31,,0.42,MeOH ,,,,,,"409, 507, 538, 608, 665",10.3390/ph14020138
1482,3_263,FEtPP,FALSE,C[N]1=C2C=C/C1=C(C3=CC=CC=C3)/C4=CC=C5N4[P+]([N]6=C7C=CC6=C5C8=CC=CC=C8)(OCC(F)(F)F)(OCC(F)(F)F)N9/C(C=CC9=C7C%10=CC=CC=C%10)=C2/C%11=CC=CC=C%11.[Cl-],435,1275,sodium phosphate buffer ,,,,0.68,sodium phosphate buffer ,,,,,,, 10.1142/S1088424612501258
1483,3_264,CLP(V)TMPP,FALSE,Cl[P+]12([N]3=C4C=CC3=C5C6=CC=C(OC)C=C6)(Cl)N7C(C=CC7=C4C8=CC=C(OC)C=C8)=C(C9=CC=C(OC)C=C9)C(C=C%10)=[N]1C%10=C(C%11=CC=C(OC)C=C%11)C%12=CC=C5N%122.[Cl-],435,,sodium phosphate buffer ,,,,0.97,sodium phosphate buffer ,,,,,,,10.1021/acs.chemrestox.8b00059
1484,3_265,MEP(V)TMPP,FALSE,COC(C=C1)=CC=C1C2=C3C=CC4=[N]3[P+]5([N]6=C7C=CC6=C(C8=CC=C(OC)C=C8)C9=CC=C2N95)(OC)(OC)N%10C(C=CC%10=C7C%11=CC=C(OC)C=C%11)=C4C%12=CC=C(OC)C=C%12.[Cl-],450,,sodium phosphate buffer ,,,,0.86,sodium phosphate buffer ,,,,,,,10.1021/acs.chemrestox.8b00059
1485,3_266,EGP(V)TMPP,FALSE,COC(C=C1)=CC=C1C2=C3C=CC4=[N]3[P+]5([N]6=C7C=CC6=C(C8=CC=C(OC)C=C8)C9=CC=C2N95)(OCCO)(OCCO)N%10C(C=CC%10=C7C%11=CC=C(OC)C=C%11)=C4C%12=CC=C(OC)C=C%12.[Cl-],445,,sodium phosphate buffer ,,,,0.83,sodium phosphate buffer ,,,,,,,10.1021/acs.chemrestox.8b00059
1486,3_267,ZnTPyP,TRUE,[Zn]N1/C(C=C/C1=C2\C3=CC=NC=C3)=C(C4=CC=NC=C4)\C(C=C/5)=NC5=C(C6=CC=NC=C6)/C7=CC=C(/C(C8=CC=NC=C8)=C9N=C2C=C\9)N7C,418,656, 1:1 CH3CN/H2O,,,,,,,-7.96,-16.72,-8.76,electrochemistry,,10.1021/acs.inorgchem.9b01838
1487,3_268,[ZnTMePyP4+]Cl4,TRUE,[Zn]N1/C(C=C/C1=C2\C3=CC=[N+](C)C=C3)=C(C4=CC=[N+](C)C=C4)\C(C=C/5)=NC5=C(C6=CC=[N+](C)C=C6)/C7=CC=C(/C(C8=CC=[N+](C)C=C8)=C9N=C2C=C\9)N7C,438,627, 1:1 CH3CN/H2O,,,,,,,-8.73,-12.16,-3.43,electrochemistry,,10.1021/acs.inorgchem.9b01838
1488,3_269,ZnTPP-[COOH]4,TRUE,[Zn]N1/C(C=C/C1=C2\C3=CC=C(C(O)=O)C=C3)=C(C4=CC=C(C(O)=O)C=C4)\C(C=C/5)=NC5=C(C6=CC=C(C(O)=O)C=C6)/C7=CC=C(/C(C8=CC=C(C(O)=O)C=C8)=C9N=C2C=C\9)N7C,421,659, 1:1 CH3CN/H2O,,,,,,,-8.13,-11.49,-3.36,electrochemistry,,10.1021/acs.inorgchem.9b01838
1489,3_270,ZnTPP-[COOMe]4,TRUE,[Zn]N1/C(C=C/C1=C2\C3=CC=C(C(OC)=O)C=C3)=C(C4=CC=C(C(OC)=O)C=C4)\C(C=C/5)=NC5=C(C6=CC=C(C(OC)=O)C=C6)/C7=CC=C(/C(C8=CC=C(C(OC)=O)C=C8)=C9N=C2C=C\9)N7C,423,657, 1:1 CH3CN/H2O,,,,,,,-8.1,-11.62,-3.52,electrochemistry,,10.1021/acs.inorgchem.9b01838
1490,3_271,ZnTPP-[PO(OEt)2]4,TRUE,[Zn]N1/C(C=C/C1=C2\C3=CC=C(P(OCC)(OCC)=O)C=C3)=C(C4=CC=C(P(OCC)(OCC)=O)C=C4)\C(C=C/5)=NC5=C(C6=CC=C(P(OCC)(OCC)=O)C=C6)/C7=CC=C(/C(C8=CC=C(P(OCC)(OCC)=O)C=C8)=C9N=C2C=C\9)N7C,424,657, 1:1 CH3CN/H2O,,,,,,,-8.26,-10.39,-2.13,electrochemistry,,10.1021/acs.inorgchem.9b01838
1491,3_272,Sn(OH)2TPyP,TRUE,CN1C2=CC=C1/C(C3=CC=NC=C3)=C4C=CC5=[N]/4[Sn]([N]6=C7C=C/C6=C2\C8=CC=NC=C8)(O)(O)N9C(C=CC9=C7C%10=CC=NC=C%10)=C5C%11=CC=NC=C%11,417,650, 1:1 CH3CN/H2O,,,,,,,-9.1,-15.51,-6.41,electrochemistry,,10.1021/acs.inorgchem.9b01838
1492,3_273,[Sn(OH)2TMePyP4+]Cl4,TRUE,CN1C2=CC=C1/C(C3=CC=[N+](C)C=C3)=C4C=CC5=[N]/4[Sn]([N]6=C7C=C/C6=C2\C8=CC=[N+](C)C=C8)(O)(O)N9C(C=CC9=C7C%10=CC=[N+](C)C=C%10)=C5C%11=CC=[N+](C)C=C%11,422,657, 1:1 CH3CN/H2O,,,,,,,-10.55,-13.55,-3,electrochemistry,,10.1021/acs.inorgchem.9b01838
1493,3_274,Sn(Cl2)TPP-[COOH]4,TRUE,CN1C2=CC=C1/C(C3=CC=C(C(O)=O)C=C3)=C4C=CC5=[N]/4[Sn]([N]6=C7C=C/C6=C2\C8=CC=C(C(O)=O)C=C8)(Cl)(Cl)N9C(C=CC9=C7C%10=CC=C(C(O)=O)C=C%10)=C5C%11=CC=C(C(O)=O)C=C%11,421,602, 1:1 CH3CN/H2O,,,,,,,-9.27,-12.45,-3.18,electrochemistry,,10.1021/acs.inorgchem.9b01838
1494,3_275,"Sn(Cl2)TPP-[COOMe]4
",TRUE,CN1C2=CC=C1/C(C3=CC=C(C(OC)=O)C=C3)=C4C=CC5=[N]/4[Sn]([N]6=C7C=C/C6=C2\C8=CC=C(C(OC)=O)C=C8)(Cl)(Cl)N9C(C=CC9=C7C%10=CC=C(C(OC)=O)C=C%10)=C5C%11=CC=C(C(OC)=O)C=C%11,425,604, 1:1 CH3CN/H2O,,,,,,,-8.76,-16.95,-8.19,electrochemistry,,10.1021/acs.inorgchem.9b01838
1495,3_276,Sn(Cl2)TPP-PO(OEt)2]4,TRUE,CN1C2=CC=C1/C(C3=CC=C(P(OCC)(OCC)=O)C=C3)=C4C=CC5=[N]/4[Sn]([N]6=C7C=C/C6=C2\C8=CC=C(P(OCC)(OCC)=O)C=C8)(Cl)(Cl)N9C(C=CC9=C7C%10=CC=C(P(OCC)(OCC)=O)C=C%10)=C5C%11=CC=C(P(OCC)(OCC)=O)C=C%11,424,659, 1:1 CH3CN/H2O,,,,,,,-8.87,-16.38,-7.51,electrochemistry,,10.1021/acs.inorgchem.9b01838
1496,3_277,Porphyrin 1,FALSE,OC1=CC=CC(/C(C2=CC=C(/C(C3=CC(O)=CC=C3)=C4C=CC5=N/4)N2)=C6N=C(/C(C7=CC(O)=CC=C7)=C(C=C/8)\NC8=C5\C9=CC(O)=CC=C9)C=C/6)=C1,415,653,Ethanol,477000,0.11,,0.71,ethanol,,,,,,"415, 512, 546, 589, 648",10.1016/j.saa.2015.03.076
1497,3_278,Porphyrin2,FALSE,OC(C=C1)=CC=C1/C(C2=CC=C(/C(C3=CC=C(O)C=C3)=C4C=CC5=N/4)N2)=C6N=C(/C(C7=CC=C(O)C=C7)=C(C=C/8)\NC8=C5\C9=CC=C(O)C=C9)C=C/6,418,658,Ethanol,409000,0.15,,0.75,ethanol,,,,,,"418, 516, 554, 593, 650",10.1016/j.saa.2015.03.076
1498,3_279,Porphyrin 3,FALSE,OC(C(OC)=C1)=CC=C1/C(C2=CC=C(/C(C3=CC=C(O)C(OC)=C3)=C4C=CC5=N/4)N2)=C6N=C(/C(C7=CC=C(O)C(OC)=C7)=C(C=C/8)\NC8=C5\C9=CC=C(O)C(OC)=C9)C=C/6,421,659,Ethanol,323000,0.12,,0.84,ethanol,,,,,,"421, 516, 554, 593, 650",10.1016/j.saa.2015.03.076
1499,3_280,Porphyrin 4,FALSE,OC(C(OC)=C1)=C(OC)C=C1/C(C2=CC=C(/C(C3=CC(OC)=C(O)C(OC)=C3)=C4C=CC5=N/4)N2)=C6N=C(/C(C7=CC(OC)=C(O)C(OC)=C7)=C(C=C/8)\NC8=C5\C9=CC(OC)=C(O)C(OC)=C9)C=C/6,423,659,Ethanol,351000,0.12,,0.76,ethanol,,,,,,"423, 516, 554, 592, 650",10.1016/j.saa.2015.03.076
1500,3_256,TPP,FALSE,C1(/C(C2=CC=CC=C2)=C(C=C/3)\NC3=C4\C5=CC=CC=C5)=N/C(C=C1)=C(C6=CC=CC=C6)\C7=CC=C(/C(C8=CC=CC=C8)=C9C=CC4=N/9)N7,413,651,Ethanol,430000,0.11,,0.7,ethanol,,,,,,"413, 511, 545, 589, 646",10.1016/j.saa.2015.03.076
1501,3_282,Porphyrin,FALSE,O=C(OC)C(C=C1)=CC=C1/C(C2=CC=C(/C(C3=C(O)C=CC=C3)=C4C=CC5=N/4)N2)=C6N=C(/C(C7=CC=C(C(OC)=O)C=C7)=C(C=C/8)\NC8=C5\C9=CC=C(C(OC)=O)C=C9)C=C/6,416,653,ethanol,,0.12,,0.54,chloroform,,,,,,"416, 513, 546, 589, 647",10.1016/j.carbpol.2016.05.060
1502,3_283,TMPyP,FALSE,C[N+](C=C1)=CC=C1/C(C(C=C/2)=NC2=C3\C4=CC=[N+](C)C=C4)=C(N/5)\C=CC5=C(C6=CC=[N+](C)C=C6)\C7=N/C(C=C7)=C(C8=CC=[N+](C)C=C8)\C9=CC=C3N9,420,,phosphate buffer,,0.044,,0.9,D2O,,,,,,,10.1016/j.ccr.2004.02.004
1503,3_284,TPPS,FALSE,O=S(C(C=C1)=CC=C1/C(C(C=C/2)=NC2=C3\C4=CC=C(S(=O)(O)=O)C=C4)=C(N/5)\C=CC5=C(C6=CC=C(S(=O)(O)=O)C=C6)\C7=N/C(C=C7)=C(C8=CC=C(S(=O)(O)=O)C=C8)\C9=CC=C3N9)(O)=O,415,,phosphate buffer,,0.1,,0.64,neutral D2O,,,,,,,10.1016/j.ccr.2004.02.004
1504,3_285,PNIPAM130-b-PTPPC6MA37,FALSE,O=C(C(C)(CC(C(NC(C)C)=O)C(C)(C)C(O)=O)CSC(SCCCCCCCCCCCC)=S)OCCCCCCOC(C=C1)=CC=C1/C(C2=CC=C(/C(C3=CC=CC=C3)=C4N=C(/C(C5=CC=CC=C5)=C(C=C/6)\NC6=C7\C8=CC=CC=C8)C=C\4)N2)=C9C=CC7=N\9,420,,CCl4,,,,0.812,CCl4,,,,,,,10.1039/c5py00039d
1505,3_286,P-C60,FALSE,O=C(C1C23=C4C5=C6C7=C8C9=C(C(C%10=C%11C%12=C%13C%14=C%15C%16=C%17%18)=C8C%12=C(C%13=C%19%16)C7=C%20C%19=C%17C%21=C%22C%23=C4C%21=C6%20)C%24=C(C%25=C%26C31=C%23C%27=C%28C%22=C%18C%29=C%15C%30=C%14C%11=C%31C%10=C%24C%25=C(C%32=C%26%27)C%31=C%30C%32=C%28%29)C2=C95)NC(C=C%33)=CC=C%33/C(C(C=C/%34)=NC%34=C%35\C%36=CC=C(OC)C=C%36)=C(N/%37)\C=CC%37=C(C%38=CC=C(OC)C=C%38)\C%39=N/C(C=C%39)=C(C%40=CC=C(OC)C=C%40)\C%41=CC=C%35N%41,425,,DMF,405000,0.0034,,0.8,Toluene,,,,,,,10.1562/2005-01-24-RA-426R.1
1506,3_286,P-C60,FALSE,O=C(C1C23=C4C5=C6C7=C8C9=C(C(C%10=C%11C%12=C%13C%14=C%15C%16=C%17%18)=C8C%12=C(C%13=C%19%16)C7=C%20C%19=C%17C%21=C%22C%23=C4C%21=C6%20)C%24=C(C%25=C%26C31=C%23C%27=C%28C%22=C%18C%29=C%15C%30=C%14C%11=C%31C%10=C%24C%25=C(C%32=C%26%27)C%31=C%30C%32=C%28%29)C2=C95)NC(C=C%33)=CC=C%33/C(C(C=C/%34)=NC%34=C%35\C%36=CC=C(OC)C=C%36)=C(N/%37)\C=CC%37=C(C%38=CC=C(OC)C=C%38)\C%39=N/C(C=C%39)=C(C%40=CC=C(OC)C=C%40)\C%41=CC=C%35N%41,425,,DMF,405000,0.003,,0.18,DMF,,,,,,,10.1562/2005-01-24-RA-426R.1
1507,3_287,ZnP-C60,TRUE,O=C(C1C23=C4C5=C6C7=C8C9=C(C(C%10=C%11C%12=C%13C%14=C%15C%16=C%17%18)=C8C%12=C(C%13=C%19%16)C7=C%20C%19=C%17C%21=C%22C%23=C4C%21=C6%20)C%24=C(C%25=C%26C31=C%23C%27=C%28C%22=C%18C%29=C%15C%30=C%14C%11=C%31C%10=C%24C%25=C(C%32=C%26%27)C%31=C%30C%32=C%28%29)C2=C95)NC(C=C%33)=CC=C%33C%34=C%35C=CC%36=C(C%37=CC=C(OC)C=C%37)C%38=[N]%39C(C=C%38)=C(C%40=CC=C(OC)C=C%40)C%41=CC=C%42N%41[Zn@@]%39([N]%43=C%34C=CC%43=C%42C%44=CC=C(OC)C=C%44)N%35%36,340,,DMF,391000,0.0015,,0.62,Toluene,,,,,,,10.1562/2005-01-24-RA-426R.1
1508,3_287,ZnP-C60,TRUE,O=C(C1C23=C4C5=C6C7=C8C9=C(C(C%10=C%11C%12=C%13C%14=C%15C%16=C%17%18)=C8C%12=C(C%13=C%19%16)C7=C%20C%19=C%17C%21=C%22C%23=C4C%21=C6%20)C%24=C(C%25=C%26C31=C%23C%27=C%28C%22=C%18C%29=C%15C%30=C%14C%11=C%31C%10=C%24C%25=C(C%32=C%26%27)C%31=C%30C%32=C%28%29)C2=C95)NC(C=C%33)=CC=C%33C%34=C%35C=CC%36=C(C%37=CC=C(OC)C=C%37)C%38=[N]%39C(C=C%38)=C(C%40=CC=C(OC)C=C%40)C%41=CC=C%42N%41[Zn@@]%39([N]%43=C%34C=CC%43=C%42C%44=CC=C(OC)C=C%44)N%35%36,340,,DMF,391000,0.0014,,0.04,DMF,,,,,,,10.1562/2005-01-24-RA-426R.1
1509,3_288,F10APP,FALSE,CN(C)CCCOC(C=C1)=CC=C1/C(C(C=C/2)=NC2=C3\C4=C(F)C(F)=C(F)C(F)=C4F)=C(N/5)\C=CC5=C(C6=C(F)C(F)=C(F)C(F)=C6F)\C7=N/C(C=C7)=C(C8=CC=C(OCCCN(C)C)C=C8)\C9=CC=C3N9,418,649,DMF,168000,0.09,,0.33,DMF,,,,,,,10.1016/j.pdpdt.2018.09.017
1510,3_289,F5APP,FALSE,CN(C)CCCOC(C=C1)=CC=C1/C(C(C=C/2)=NC2=C3\C4=C(F)C(F)=C(F)C(F)=C4F)=C(N/5)\C=CC5=C(C6=CC=C(OCCCN(C)C)C=C6)\C7=N/C(C=C7)=C(C8=CC=C(OCCCN(C)C)C=C8)\C9=CC=C3N9,420,651,DMF,167000,0.11,,0.36,DMF,,,,,,,10.1016/j.pdpdt.2018.09.017
1511,3_290,TAPP,FALSE,CN(C)CCCOC(C=C1)=CC=C1/C(C(C=C/2)=NC2=C3\C4=CC=C(OCCCN(C)C)C=C4)=C(N/5)\C=CC5=C(C6=CC=C(OCCCN(C)C)C=C6)\C7=N/C(C=C7)=C(C8=CC=C(OCCCN(C)C)C=C8)\C9=CC=C3N9,421,655,DMF,164000,0.15,,0.53,DMF,,,,,,,10.1016/j.pdpdt.2018.09.017
1512,3_291,H2TTP,FALSE,C1(/C(C2=CC=CS2)=C(C=C/3)\NC3=C4\C5=CC=CS5)=N/C(C=C1)=C(C6=CC=CS6)\C7=CC=C(/C(C8=CC=CS8)=C9C=CC4=N/9)N7,428,670,DMF,,0.02,,0.55,DMF,,,,,,"428, 523, 562, 597,660 ",10.1039/c8md00373d
1513,3_256,H2TPP,FALSE,C1(/C(C2=CC=CC=C2)=C(C=C/3)\NC3=C4\C5=CC=CC=C5)=N/C(C=C1)=C(C6=CC=CC=C6)\C7=CC=C(/C(C8=CC=CC=C8)=C9C=CC4=N/9)N7,418,652,DMF,,0.13,,0.42,DMF,,,,,,"418, 513, 548, 589, 644 ",10.1039/c8md00373d
1514,3_293,[Sn(IV)TTP(3PyO)2],TRUE,C12=[N]3C(C=C1)=C(C4=CC=CS4)C5=CC=C6N5[Sn]37(OC8=CN=CC=C8)(OC9=CN=CC=C9)N%10C(C=CC%10=C2C%11=CC=CS%11)=C(C%12=CC=CS%12)C(C=C%13)=[N]7C%13=C6C%14=CC=CS%14,441,637,DMF,,0.001,,0.83,DMF,,,,,,"441, 568, 613 ",10.1039/c8md00373d
1515,3_294,[Sn(IV)TPP(3PyO)2],TRUE,C12=[N]3C(C=C1)=C(C4=CC=CC=C4)C5=CC=C6N5[Sn]37(OC8=CN=CC=C8)(OC9=CN=CC=C9)N%10C(C=CC%10=C2C%11=CC=CC=C%11)=C(C%12=CC=CC=C%12)C(C=C%13)=[N]7C%13=C6C%14=CC=CC=C%14,426,607,DMF,,0.04,,0.6,DMF,,,,,,"426, 559, 598 ",10.1039/c8md00373d
1516,3_295,F2POH,FALSE,FC1=C(S(=O)(O)=O)C=CC(F)=C1/C(C2=CC=C(/C(C3=C(F)C=CC(S(=O)(O)=O)=C3F)=C4C=CC5=N/4)N2)=C6N=C(/C(C7=C(F)C=CC(S(=O)(O)=O)=C7F)=C(C=C/8)\NC8=C5\C9=C(F)C=CC(S(=O)(O)=O)=C9F)C=C/6,420,,EtOH,329000,0.04,,0.71,EtOH,,,,,,"420, 508, 584, 638",10.1371/journal.pone.0185984
1517,3_296,Cl2POH,FALSE,ClC1=C(S(=O)(O)=O)C=CC(Cl)=C1/C(C2=CC=C(/C(C3=C(Cl)C=CC(S(=O)(O)=O)=C3Cl)=C4C=CC5=N/4)N2)=C6N=C(/C(C7=C(Cl)C=CC(S(=O)(O)=O)=C7Cl)=C(C=C/8)\NC8=C5\C9=C(Cl)C=CC(S(=O)(O)=O)=C9Cl)C=C/6,420,,EtOH,116000,0.015,,0.98,EtOH,,,,,,"420, 514, 546, 592, 646",10.1371/journal.pone.0185984
1518,3_297,Cl2PEt,FALSE,ClC1=C(S(=O)(NCC)=O)C=CC(Cl)=C1/C(C2=CC=C(/C(C3=C(Cl)C=CC(S(=O)(NCC)=O)=C3Cl)=C4C=CC5=N/4)N2)=C6N=C(/C(C7=C(Cl)C=CC(S(=O)(NCC)=O)=C7Cl)=C(C=C/8)\NC8=C5\C9=C(Cl)C=CC(S(=O)(NCC)=O)=C9Cl)C=C/6,418,,EtOH,624000,0.017,,0.85,EtOH,,,,,,"418, 514, 546, 592, 646",10.1371/journal.pone.0185984
1519,3_298,Pp IX,FALSE,C=CC1=C(C)/C(N/C1=C\C2=N/C(C(C=C)=C2C)=C\3)=C/C(C(C)=C/4CCC(O)=O)=NC4=C/C5=C(CCC(O)=O)C(C)=C3N5,398,615,dichloromethane,,,1270,0.77,CCl4,,,,,,,10.1021/la800840k
1520,3_298,Pp IX,FALSE,C=CC1=C(C)/C(N/C1=C\C2=N/C(C(C=C)=C2C)=C\3)=C/C(C(C)=C/4CCC(O)=O)=NC4=C/C5=C(CCC(O)=O)C(C)=C3N5,398,615,dichloromethane,,,1270,0.6,aqueous/TX100 solution,,,,,,,10.1021/la800840k
1521,3_299,silyl-Pp IX,FALSE,C=CC1=C(C)/C(N/C1=C\C2=N/C(C(C=C)=C2C)=C\3)=C/C(C(C)=C/4CCC(NCCC[Si](OCC)(OCC)OCC)=O)=NC4=C/C5=C(CCC(NCCC[Si](OCC)(OCC)OCC)=O)C(C)=C3N5,405,620,dichloromethane,,,1270,0.6,acetonitrile,,,,,,,10.1021/la800840k
1522,3_300,TCPP,FALSE,O=C(C(C=C1)=CC=C1/C(C2=CC=C(/C(C3=CC=C(C(O)=O)C=C3)=C4N=C(/C(C5=CC=C(C(O)=O)C=C5)=C(C=C/6)\NC6=C7\C8=CC=C(C(O)=O)C=C8)C=C\4)N2)=C9C=CC7=N\9)O,416,650,methanol,,,,0.135,methanol,,,,,,,10.1142/S1088424619501207
1523,3_300,TCPP,FALSE,O=C(C(C=C1)=CC=C1/C(C2=CC=C(/C(C3=CC=C(C(O)=O)C=C3)=C4N=C(/C(C5=CC=C(C(O)=O)C=C5)=C(C=C/6)\NC6=C7\C8=CC=C(C(O)=O)C=C8)C=C\4)N2)=C9C=CC7=N\9)O,416,640,pure water,,,,0.1,water,,,,,,,10.1142/S1088424619501207
1524,3_300,TCPP,FALSE,O=C(C(C=C1)=CC=C1/C(C2=CC=C(/C(C3=CC=C(C(O)=O)C=C3)=C4N=C(/C(C5=CC=C(C(O)=O)C=C5)=C(C=C/6)\NC6=C7\C8=CC=C(C(O)=O)C=C8)C=C\4)N2)=C9C=CC7=N\9)O,416,650,ethanol,,,,0.147,ethanol,,,,,,,10.1142/S1088424619501207
1525,3_300,TCPP,FALSE,O=C(C(C=C1)=CC=C1/C(C2=CC=C(/C(C3=CC=C(C(O)=O)C=C3)=C4N=C(/C(C5=CC=C(C(O)=O)C=C5)=C(C=C/6)\NC6=C7\C8=CC=C(C(O)=O)C=C8)C=C\4)N2)=C9C=CC7=N\9)O,416,650,DMF,,,,0.043,DMF,,,,,,,10.1142/S1088424619501207
1526,3_301,ZnP,TRUE,O=C(C(C=C1)=CC=C1C2=C3C=CC4=C(C5=CC=CC=C5)C6=[N]7C(C=C6)=CC8=CC=C9N8[Zn]([N]%10=C2C=CC%10=C9C%11=CC=CC=C%11)7N34)O,414,649,dichloromethane,516000,,,,,,-5.25,-2.37,-2.88,theoretical,"414, 542",10.1039/c5ra04862a
1527,3_302,CZ-ZnP,TRUE,O=C(C(C=C1)=CC=C1C2=C3C=CC4=C(C5=CC=CC=C5)C6=[N]7C(C=C6)=C(C8=CC=C(N9C(C=CC=C%10)=C%10C%11=C9C=CC=C%11)C=C8)C%12=CC=C%13N%12[Zn]([N]%14=C2C=CC%14=C%13C%15=CC=CC=C%15)7N34)O,420,606,dichloromethane,454000,,,,,,-5.15,-2.4,-2.75,theoretical,"420, 548, 586",10.1039/c5ra04862a
1528,3_303,IDB-ZnP,TRUE,O=C(C(C=C1)=CC=C1C2=C3C=CC4=C(C5=CC=CC=C5)C6=[N]7C(C=C6)=C(C8=CC=C(N9C(C=CC=C%10)=C%10CCC%11=C9C=CC=C%11)C=C8)C%12=CC=C%13N%12[Zn]([N]%14=C2C=CC%14=C%13C%15=CC=CC=C%15)7N34)O,422,613,dichloromethane,234000,,,,,,-5.05,-2.37,-2.68,theoretical,"422, 552, 593",10.1039/c5ra04862a
1529,3_304,ISB-ZnP,TRUE,O=C(C(C=C1)=CC=C1C2=C3C=CC4=C(C5=CC=CC=C5)C6=[N]7C(C=C6)=C(C8=CC=C(N9C(C=CC=C%10)=C%10C=CC%11=C9C=CC=C%11)C=C8)C%12=CC=C%13N%12[Zn]([N]%14=C2C=CC%14=C%13C%15=CC=CC=C%15)7N34)O,423,614,dichloromethane,354000,,,,,,-5.2,-2.44,-2.76,theoretical,"423, 551, 592",10.1039/c5ra04862a
1530,3_305,1Mg,TRUE,CCCCCCCCOC(C(OCCCCCCCC)=C1)=CC2=C1C3=N/C2=N\C4=C(C5=CC=C(C(C)(C)C)C=C5)C(C6=CC=C(C(C)(C)C)C=C6)=C7N4[Mg]N8/C(C(C9=CC=C(C(C)(C)C)C=C9)=C(C%10=CC=C(C(C)(C)C)C=C%10)/C8=N/3)=N\C(C(C%11=CC=C(C(C)(C)C)C=C%11)=C/%12C%13=CC=C(C(C)(C)C)C=C%13)=NC%12=N/7,375,,spectral grade toluene(add 0.1-0.01 M pyridine),,,,0.27,spectral grade toluene(add 0.1-0.01 M pyridine),,,,,,,10.1021/jp050073a
1531,3_306,2AdMg,TRUE,CCCCCCCCOC(C(OCCCCCCCC)=C1)=CC2=C1C3=N/C2=N\C4=C(OCCCCCCCC)C(OCCCCCCCC)=C5N4[Mg]N6/C(C(C7=CC=C(C(C)(C)C)C=C7)=C(C8=CC=C(C(C)(C)C)C=C8)/C6=N/3)=N\C(C(C9=CC=C(C(C)(C)C)C=C9)=C/%10C%11=CC=C(C(C)(C)C)C=C%11)=NC%10=N/5,660,,spectral grade toluene(add 0.1-0.01 M pyridine),,,,0.18,spectral grade toluene(add 0.1-0.01 M pyridine),,,,,,,10.1021/jp050073a
1532,3_307,2OpMg,TRUE,CCCCCCCCOC(C(OCCCCCCCC)=C1)=CC2=C1C3=N/C2=N\C4=C(C5=CC=C(C(C)(C)C)C=C5)C(C6=CC=C(C(C)(C)C)C=C6)=C7N4[Mg]N8/C(C(C9=CC=C(C(C)(C)C)C=C9)=C(C%10=CC=C(C(C)(C)C)C=C%10)/C8=N/3)=N\C(C(OCCCCCCCC)=C/%11OCCCCCCCC)=NC%11=N/7,713,,spectral grade toluene(add 0.1-0.01 M pyridine),,,,0.24,spectral grade toluene(add 0.1-0.01 M pyridine),,,,,,,10.1021/jp050073a
1533,3_308,3Mg,TRUE,CCCCCCCCOC(C(OCCCCCCCC)=C1)=CC2=C1C3=N/C2=N\C4=C(OCCCCCCCC)C(OCCCCCCCC)=C5N4[Mg]N6/C(C(C7=CC=C(C(C)(C)C)C=C7)=C(C8=CC=C(C(C)(C)C)C=C8)/C6=N/3)=N\C(C(OCCCCCCCC)=C/9OCCCCCCCC)=NC9=N/5,694,,spectral grade toluene(add 0.1-0.01 M pyridine),,,,0.2,spectral grade toluene(add 0.1-0.01 M pyridine),,,,,,,10.1021/jp050073a
1534,3_309,4Mg,TRUE,CCCCCCCCOC(C(OCCCCCCCC)=C1)=CC2=C1C3=N/C2=N\C4=C(OCCCCCCCC)C(OCCCCCCCC)=C5N4[Mg]N6/C(C(OCCCCCCCC)=C(OCCCCCCCC)/C6=N/3)=N\C(C(OCCCCCCCC)=C/7OCCCCCCCC)=NC7=N/5,683,,spectral grade toluene(add 0.1-0.01 M pyridine),,,,0.14,spectral grade toluene(add 0.1-0.01 M pyridine),,,,,,,10.1021/jp050073a