,index,name,metal_complex,SMILES,max_absorption_peak,max_emission_peak,solvant_spectrum,molar_extinction_coefficient,quantum_yield_fluorescence,max_phosphorescence_peak,quantum_yield_singlet_oxygen,solvant_quantum_yield,energy_level_exited_triplet_state,energy_level_HUMO,energy_level_LUMO,difference_HOMO_and_LUMO,method_for_HOMO/LUMO,all_absoption_peaks,reference_DOI
1622,4_82,CD（3）,FALSE,CC1(C)C(/C=C/C(CCC/2)=C(SC3=CC(C(O)=O)=CC=C3)C2=C\C=C4N(CCCCS(=O)(O[Na])=O)C(C=CC5=C6C=CC=C5)=C6C\4(C)C)=[N+](CCCCS(=O)([O-])=O)C7=C1C(C=CC=C8)=C8C=C7,832,866,methanol,,,,0,methanol,,,,,,,10.7150/thno.5923
1623,4_83,CD（4）,FALSE,CC1(C)C(/C=C/C(CCC/2)=C(SC3=CC(C(O)=O)=CC=C3)C2=C\C=C4N(CCCCS(=O)(O[Na])=O)C(C=CC=C5)=C5C\4(C)C)=[N+](CCCCS(=O)([O-])=O)C6=C1C=CC=C6,795,829,methanol,,,,0,methanol,,,,,,,10.7150/thno.5923
1624,4_84,CYPATE（5）,FALSE,CC(C(C(C=CC=C1)=C1C=C2)=C2N3CCC(O)=O)(C)C3/C=C/C=C/C=C/C=C4N(CCC(O)=O)C(C=CC5=C6C=CC=C5)=C6C/4(C)C,785,822,methanol,,,,0,methanol,,,,,,"420, 785",10.7150/thno.5923
1625,4_85,HPPH-CD（9）,FALSE,CC1(C)C(/C=C/C(CCC/2)=C(SC3=CC=C(NC(CC[C@@H]4/C(N=C5[C@H]4C)=C6CC(C7=C\6NC(/C=C8C(CC)=C(C)C(/C=C9C(C(OCCCCCC)C)=C(C)/C(N/9)=C/5)=N/8)=C7C)=O)=O)C=C3)C2=C\C=C%10N(CCCCS(=O)(O[Na])=O)C(C=CC%11=C%12C=CC=C%11)=C%12C\%10(C)C)=[N+](CCCCS(=O)([O-])=O)C%13=C1C(C=CC=C%14)=C%14C=C%13,834,874,methanol,,,,0.08,methanol,,,,,,"400, 660, 834",10.7150/thno.5923
1626,4_86,HPPH-NH3（10）,FALSE,CC1(C)C(/C=C/C(CCC/2)=C(SC3=CC=C(NC(CC[C@@H]4/C(N=C5[C@H]4C)=C6CC(C7=C\6NC(/C=C8C(CC)=C(C)C(/C=C9C(C(OCCCCCC)C)=C(C)/C(N/9)=C/5)=N/8)=C7C)=O)=O)C=C3)C2=C\C=C%10N(CCCCS(=O)(O[Na])=O)C(C=CC=C%11)=C%11C\%10(C)C)=[N+](CCCCS(=O)([O-])=O)C%12=C1C=CC=C%12,796,831,methanol,,,,0.05,methanol,,,,,,"400, 660, 796",10.7150/thno.5923
1627,4_87,HPPH2CD(11),FALSE,CC1(C)C(/C=C/C(CCC/2)=C(SC3=CC(C(N(CCNC(CC[C@@H]4/C(N=C5[C@H]4C)=C6CC(C7=C\6NC(/C=C8C(CC)=C(C)C(/C=C9C(C(OCCCCCC)C)=C(C)/C(N/9)=C/5)=N/8)=C7C)=O)=O)CCNC(CC[C@@H]%10/C(N=C%11[C@H]%10C)=C%12CC(C%13=C\%12NC(/C=C%14C(CC)=C(C)C(/C=C%15C(C(OCCCCCC)C)=C(C)/C(N/%15)=C/%11)=N/%14)=C%13C)=O)=O)=O)=CC=C3)C2=C\C=C%16N(CCCCS(=O)(O[Na])=O)C(C=CC%17=C%18C=CC=C%17)=C%18C\%16(C)C)=[N+](CCCCS(=O)([O-])=O)C%19=C1C(C=CC=C%20)=C%20C=C%19,850,890,methanol,,,,0.09,methanol,,,,,,"400, 660, 850",10.7150/thno.5923
1628,4_88,HPPH2NH3(12),FALSE,CC1(C)C(/C=C/C(CCC/2)=C(SC3=CC(C(N(CCNC(CC[C@@H]4/C(N=C5[C@H]4C)=C6CC(C7=C\6NC(/C=C8C(CC)=C(C)C(/C=C9C(C(OCCCCCC)C)=C(C)/C(N/9)=C/5)=N/8)=C7C)=O)=O)CCNC(CC[C@@H]%10/C(N=C%11[C@H]%10C)=C%12CC(C%13=C\%12NC(/C=C%14C(CC)=C(C)C(/C=C%15C(C(OCCCCCC)C)=C(C)/C(N/%15)=C/%11)=N/%14)=C%13C)=O)=O)=O)=CC=C3)C2=C\C=C%16N(CCCCS(=O)(O[Na])=O)C(C=CC=C%17)=C%17C\%16(C)C)=[N+](CCCCS(=O)([O-])=O)C%18=C1C=CC=C%18,809,842,methanol,,,,0.06,methanol,,,,,,"400, 660, 809",10.7150/thno.5923
1629,4_89,HPPH-Cyp（13）,FALSE,CC(C(C(C=CC=C1)=C1C=C2)=C2N3CCC(O)=O)(C)C3/C=C/C=C/C=C/C=C4N(CCC(NCCNC(CC[C@H]5/C(N=C(/C=C6N/C(C(OCCCCCC)=C\6C)=C\C7=N/C(C(CC)=C7C)=C\C8=C(C)C9=C%10N8)[C@@H]5C)=C%10\CC9=O)=O)=O)C(C=CC%11=C%12C=CC=C%11)=C%12C/4(C)C,788,828,methanol,,,,0.06,methanol,,,,,,"430, 640, 788",10.7150/thno.5923
1630,4_90,HPPH2Cyp(14),FALSE,CC(C(C(C=CC=C1)=C1C=C2)=C2N3CCC(NCCNC(CC[C@H]4/C(N=C(/C=C5N/C(C(OCCCCCC)=C\5C)=C\C6=N/C(C(CC)=C6C)=C\C7=C(C)C8=C9N7)[C@@H]4C)=C9\CC8=O)=O)=O)(C)C3/C=C/C=C/C=C/C=C%10N(CCC(NCCNC(CC[C@H]%11/C(N=C(/C=C%12N/C(C(OCCCCCC)=C\%12C)=C\C%13=N/C(C(CC)=C%13C)=C\C%14=C(C)C%15=C%16N%14)[C@@H]%11C)=C%16\CC%15=O)=O)=O)C(C=CC%17=C%18C=CC=C%17)=C%18C/%10(C)C,798,836,methanol,,,,0.08,methanol,,,,,,"425, 640, 798",10.7150/thno.5923
1631,4_91,2-[(3-Hexylbenzoselenazol-2(3H)-ylidene)methyl]-4-[(1-hexylquinolin-1-ium-2-yl)methylidene]-3-oxocyclobut-1-en-1-olate (9),FALSE,O=C1C(/C=C2[Se]C(C=CC=C3)=C3N/2CCCCCC)=C([O-])/C1=C/C4=[N+](CCCCCC)C5=CC=CC=C5C=C4,686,,acetonitrile,128825,,,0.03,chloroform,,,,,,686,10.3390/ma13112646
1632,4_92,2-[2-Amino-3-(3-hexylbenzoselenazol-2(3H)-ylidenemethyl)-4-oxocyclobut-2-enylidenemethyl]-1-hexylquinolin-1-ium Iodide (11),FALSE,O=C1C(/C=C2[Se]C(C=CC=C3)=C3N/2CCCCCC)=C(N)/C1=C/C4=[N+](CCCCCC)C5=CC=CC=C5C=C4.[I-],658,,acetonitrile,676083,,,0.04,chloroform,,,,,,658,10.3390/ma13112646
1633,4_93,1-Hexyl-2-[3-(3-hexylbenzoselenazol-2(3H)-ylidenemethyl)-2-methylamino-4-oxocyclobut-2-enylidenemethyl]-quinolin-1-ium Iodide (12),FALSE,O=C1C(/C=C2[Se]C(C=CC=C3)=C3N/2CCCCCC)=C(NC)/C1=C/C4=[N+](CCCCCC)C5=CC=CC=C5C=C4.[I-],671,,acetonitrile,575440,,,0.06,chloroform,,,,,,671,10.3390/ma13112646
1634,4_94,Cy-N-Rh,FALSE,C[N+](C(C=CC=C1)=C1C2(C)C)=C2/C=C/C3=C(N4CCN(C5=CC(OC(C6=C7C8=C(C(O)=O)C=CC=C8)=C/C(C=C6)=[N+](CC)/CC)=C7C=C5)CC4)/C(CCC3)=C/C=C9C(C)(C)C(C=CC=C%10)=C%10N\9C,767,567,ethanol,74300,0.0179,,0.12,ethanol,,,,,,"548, 767",10.1016/j.saa.2022.121083
1635,4_95,Rh,FALSE,CC/[N+](CC)=C1C=CC2=C(C3=C(C(O)=O)C=CC=C3)C4=C(C=C(N5CCNCC5)C=C4)OC2=C/1,545,567,ethanol,21000,0.0832,,0.0046,ethanol,,,,,,545,10.1016/j.saa.2022.121083
1636,4_96,Cy,FALSE,C[N+](C(C=CC=C1)=C1C2(C)C)=C2/C=C/C3=C(N4CCNCC4)/C(CCC3)=C/C=C5C(C)(C)C(C=CC=C6)=C6N\5C,689,789,ethanol,60300,0.1141,,0.0435,ethanol,,,,,,689,10.1016/j.saa.2022.121083
1637,4_97,Cy7,FALSE,CC(C(C=CC=C1)=C1N/2C)(C)C2=C\C=C\C=C\C=C\C3=[N+](CCCCCC([O-])=O)C(C=CC=C4)=C4C3(C)C,753,786,DMSO,143300,0.55,,0.011,methanol,,,,,,753,10.1016/j.dyepig.2021.109745
1638,4_98,1ICy7,FALSE,CC(C(C=C(I)C=C1)=C1N/2C)(C)C2=C\C=C\C=C\C=C\C3=[N+](CCCCCC([O-])=O)C(C=CC=C4)=C4C3(C)C,759,792,DMSO,168000,0.53,,0.019,methanol,,,,,,759,10.1016/j.dyepig.2021.109745
1639,4_99,2ICy7,FALSE,CC(C(C=C(I)C=C1)=C1N/2C)(C)C2=C\C=C\C=C\C=C\C3=[N+](CCCCCC([O-])=O)C(C=CC(I)=C4)=C4C3(C)C,766,801,DMSO,173000,0.55,,0.023,methanol,,,,,,766,10.1016/j.dyepig.2021.109745
1640,4_100,2ICy7+,FALSE,CC(C(C=C(I)C=C1)=C1N/2CCC[N+](CC)(CC)CC)(C)C2=C\C=C\C=C\C=C\C3=[N+](CCCCCC([O-])=O)C(C=CC(I)=C4)=C4C3(C)C.FC(F)(C([O-])=O)F,766,801,DMSO,176000,0.48,,0.023,methanol,,,,,,766,10.1016/j.dyepig.2021.109745
1641,4_101,3ICy7,FALSE,CC(C(C(I)=C(I)C(I)=C1)=C1N/2C)(C)C2=C\C=C\C=C\C=C\C3=[N+](CCCCCC([O-])=O)C(C=CC=C4)=C4C3(C)C,760,794,DMSO,148000,0.49,,0.024,methanol,,,,,,760,10.1016/j.dyepig.2021.109745
1642,4_102,4ICy7,FALSE,CC(C(C(I)=C(I)C(I)=C1)=C1N/2C)(C)C2=C\C=C\C=C\C=C\C3=[N+](CCCCCC([O-])=O)C(C=CC(I)=C4)=C4C3(C)C,768,803,DMSO,144000,0.48,,0.037,methanol,,,,,,768,10.1016/j.dyepig.2021.109745
1643,4_103,6ICy7,FALSE,CC(C(C(I)=C(I)C(I)=C1)=C1N/2C)(C)C2=C\C=C\C=C\C=C\C3=[N+](CCCCCC([O-])=O)C(C=C(I)C(I)=C4I)=C4C3(C)C,771,804,DMSO,166000,0.52,,0.078,methanol,,,,,,771,10.1016/j.dyepig.2021.109745
1644,4_104,compound 2,FALSE,O=C(C1=C/2NC(/C=C3C(CC)=C(C)C(/C=C4C(C(OCCCCCC)C)=C(C)/C(N/4)=C/5)=N/3)=C1C)CC2=C(N=C5[C@H]6C)/[C@H]6CCC(NCCNC(C(C=C7)=CC=C7SC8=C(/C=C/C9=[N+](CCCCS(=O)([O-])=O)C%10=C(C(C=CC=C%11)=C%11C=C%10)C9(C)C)CCC/C8=C\C=C%12N(CCCCS(=O)(O)=O)C(C=CC%13=C%14C=CC=C%13)=C%14C\%12(C)C)=O)=O,838.9,878,methanol,204000,,,0.06,methanol,,,,,,"838.9, 659.9, 607.0, 538, 408",10.1016/j.ejmech.2016.06.045
1645,4_105,Conjugate 3,FALSE,O=C(C1=C/2NC(/C=C3C(CC)=C(C)C(/C=C4C(C(OCCCCCC)C)=C(C)/C(N/4)=C/5)=N/3)=C1C)CC2=C(N=C5[C@H]6C)/[C@H]6CCC(NCCCCNC(C(C=C7)=CC=C7SC8=C(/C=C/C9=[N+](CCCCS(=O)([O-])=O)C%10=C(C(C=CC=C%11)=C%11C=C%10)C9(C)C)CCC/C8=C\C=C%12N(CCCCS(=O)(O)=O)C(C=CC%13=C%14C=CC=C%13)=C%14C\%12(C)C)=O)=O,839,875,methanol,97500,,,0.11,methanol,,,,,,"839, 661, 606.1, 537.1, 502, 407.9",10.1016/j.ejmech.2016.06.045
1646,4_106,Conjugate 4,FALSE,O=C(C1=C/2NC(/C=C3C(CC)=C(C)C(/C=C4C(C(OCCCCCC)C)=C(C)/C(N/4)=C/5)=N/3)=C1C)CC2=C(N=C5[C@H]6C)/[C@H]6CCC(NCCCCCCNC(C(C=C7)=CC=C7SC8=C(/C=C/C9=[N+](CCCCS(=O)([O-])=O)C%10=C(C(C=CC=C%11)=C%11C=C%10)C9(C)C)CCC/C8=C\C=C%12N(CCCCS(=O)(O)=O)C(C=CC%13=C%14C=CC=C%13)=C%14C\%12(C)C)=O)=O,838.1,878,methanol,223000,,,0.07,methanol,,,,,,"838.1, 661, 609, 538, 408",10.1016/j.ejmech.2016.06.045
1647,4_107,Conjugate 5,FALSE,O=C(C1=C/2NC(/C=C3C(CC)=C(C)C(/C=C4C(C(OCCCCCC)C)=C(C)/C(N/4)=C/5)=N/3)=C1C)CC2=C(N=C5[C@H]6C)/[C@H]6CCC(NCCNC(C7=CC=CC(SC8=C(/C=C/C9=[N+](CCCCS(=O)([O-])=O)C%10=C(C(C=CC=C%11)=C%11C=C%10)C9(C)C)CCC/C8=C\C=C%12N(CCCCS(=O)(O)=O)C(C=CC%13=C%14C=CC=C%13)=C%14C\%12(C)C)=C7)=O)=O,843,878,methanol,136000,,,0.06,methanol,,,,,,"843, 661, 410",10.1016/j.ejmech.2016.06.045
1648,4_108,Conjugate 6,FALSE,O=C(C1=C/2NC(/C=C3C(CC)=C(C)C(/C=C4C(C(OCCCCCC)C)=C(C)/C(N/4)=C/5)=N/3)=C1C)CC2=C(N=C5[C@H]6C)/[C@H]6CCC(NCCCCNC(C7=CC=CC(SC8=C(/C=C/C9=[N+](CCCCS(=O)([O-])=O)C%10=C(C(C=CC=C%11)=C%11C=C%10)C9(C)C)CCC/C8=C\C=C%12N(CCCCS(=O)(O)=O)C(C=CC%13=C%14C=CC=C%13)=C%14C\%12(C)C)=C7)=O)=O,843,878,methanol,143000,,,0.11,methanol,,,,,,"843, 661, 604.1, 408.1",10.1016/j.ejmech.2016.06.045
1649,4_109,Conjugate 7,FALSE,O=C(C1=C/2NC(/C=C3C(CC)=C(C)C(/C=C4C(C(OCCCCCC)C)=C(C)/C(N/4)=C/5)=N/3)=C1C)CC2=C(N=C5[C@H]6C)/[C@H]6CCC(NCCCCCCNC(C7=CC=CC(SC8=C(/C=C/C9=[N+](CCCCS(=O)([O-])=O)C%10=C(C(C=CC=C%11)=C%11C=C%10)C9(C)C)CCC/C8=C\C=C%12N(CCCCS(=O)(O)=O)C(C=CC%13=C%14C=CC=C%13)=C%14C\%12(C)C)=C7)=O)=O,838,878,methanol,180000,,,0.08,methanol,,,,,,"838, 661, 409",10.1016/j.ejmech.2016.06.045
1650,4_110,CY-II,FALSE,CCN1C2=CC=CC=C2C=C/C1=C\C=C\C3=[N+](CC)C(C=CC=C4)=C4C=C3.[I-],703,733,ethanol,294125,,,0.04,ethanol,,,,,,703,10.1016/S1011-1344(02)00325-1
1651,4_111,CY-III,FALSE,CC[N+]1=C(SC2=C1C=CC=C2)/C=C/C=C3N(CC)C(C=CC=C4)=C4S\3.[I-],560,579,ethanol,137080,,,0.03,ethanol,,,,,,560,10.1016/S1011-1344(02)00325-1
1652,4_112,CY-IV,FALSE,CC[N+]1=C(OC2=C1C=CC=C2)/C=C/C=C3N(CC)C(C=CC=C4)=C4O\3.[I-],483,514,ethanol,130225,,,0.02,ethanol,,,,,,483,10.1016/S1011-1344(02)00325-1
1653,4_113,CY-V,FALSE,CC[N+]1=C(OC2=C1C=CC=C2)/C=C/C=C/C=C/C3N(CC)C(C=CC=C4)=C4O3.[I-],582,606,ethanol,184340,,,0.03,ethanol,,,,,,582,10.1016/S1011-1344(02)00325-1
1654,4_114,CY-VI,FALSE,CCOC(/C=C1OC(C=CC=C2)=C2N\1CC)=C\C=C3C([N+](CC)=C(/C=C4N(CC)C(C5=CC=CC=C5)=C(C6=CC=CC=C6)S/4)S/3)=O.[I-],652,698,ethanol,131410,,,0.03,ethanol,,,,,,652,10.1016/S1011-1344(02)00325-1
1655,4_115,IR-768,FALSE,CC(C(C=CC=C1)=C1N/2CCC)(C)C2=C/C=C3CCCC(/C=C/C4=[N+](CCC)C(C=CC=C5)=C5C4(C)C)=C\3OC6=CC=CC=C6.O=Cl(=O)([O-])=O,768,808,ethanol,254905,,,0.01,ethanol,,,,,,768,10.1016/S1011-1344(02)00325-1
1656,4_116,Cy5,FALSE,CCN(C(C=CC=C1)=C1C/2(C)C)C2=C\C=C\C=C\C3=[N+](CC)C4=C(C=CC=C4)C3(C)C.[I-],651,672,dichloromethane,261000,0.31,,0.025,dichloromethane,,-6.413,-2.296,4.117,electrochemistry,651,10.1021/jacs.1c06275
1657,4_117,Ph-Cy5,FALSE,CCN(C(C=CC=C1)=C1C/2(C)C)C2=C\C=C(C3=CC=CC=C3)\C=C\C4=[N+](CC)C5=C(C=CC=C5)C4(C)C.[I-],652,675,dichloromethane,272000,0.15,,0.028,dichloromethane,,,,,,652,10.1021/jacs.1c06275
1658,4_118,XAN-Cy5,FALSE,CCN(C(C=CC=C1)=C1C/2(C)C)C2=C\C=C(C3=CC=C(C=C(C=CC=C4)C4=C5)C5=C3)\C=C\C6=[N+](CC)C7=C(C=CC=C7)C6(C)C.[I-],653,674,dichloromethane,232000,0.067,,0.029,dichloromethane,,,,,,653,10.1021/jacs.1c06275
1659,4_119,AN-Cy5,FALSE,CCN(C(C=CC=C1)=C1C/2(C)C)C2=C\C=C(C3=C(C=CC=C4)C4=CC5=C3C=CC=C5)\C=C\C6=[N+](CC)C7=C(C=CC=C7)C6(C)C.[I-],650,669,dichloromethane,287000,0.368,,0.061,dichloromethane,,,,,,650,10.1021/jacs.1c06275
1660,4_120,ANPh-Cy5,FALSE,CCN(C(C=CC=C1)=C1C/2(C)C)C2=C\C=C(C3=C(C=CC=C4)C4=C(C5=CC=CC=C5)C6=C3C=CC=C6)\C=C\C7=[N+](CC)C8=C(C=CC=C8)C7(C)C.[I-],650,669,dichloromethane,229000,0.351,,0.075,dichloromethane,,,,,,650,10.1021/jacs.1c06275
1661,4_121,ANOMe-Cy5,FALSE,CCN(C(C=CC=C1)=C1C/2(C)C)C2=C\C=C(C3=C(C=CC=C4)C4=C(OC)C5=C3C=CC=C5)\C=C\C6=[N+](CC)C7=C(C=CC=C7)C6(C)C.[I-],650,670,dichloromethane,259000,0.301,,0.112,dichloromethane,,-6.408,-2.296,4.112,electrochemistry,650,10.1021/jacs.1c06275
1662,4_122,Br-Cy5,FALSE,CCN(C(C=CC(Br)=C1)=C1C/2(C)C)C2=C\C=C\C=C\C3=[N+](CC)C4=C(C=C(Br)C=C4)C3(C)C.[I-],663,683,dichloromethane,300000,0.398,,0.074,dichloromethane,,,,,,663,10.1021/jacs.1c06275
1663,4_123,I-Cy5,FALSE,CCN(C(C=CC(I)=C1)=C1C/2(C)C)C2=C\C=C\C=C\C3=[N+](CC)C4=C(C=C(I)C=C4)C3(C)C.[I-],668,689,dichloromethane,294000,0.427,,0.169,dichloromethane,,,,,,668,10.1021/jacs.1c06275
1664,4_124,2-[(3-hexylbenzothiazol-2(3H)-ylidene)methyl]-4-[(1-hexylquinolin-1-ium-2-yl)methylidene]-3-oxocyclobut-1-en-1-olate (9),FALSE,O=C1C(/C=C2SC(C=CC=C3)=C3N\2CCCCCC)=C([O-])/C1=C\C4=[N+](CCCCCCC)C5=C(C=CC=C5)C=C4,714,,DMSO,114815,,,0.03,chloroform,,,,,,714,10.1016/j.bmc.2017.05.022
1665,4_125,2-[2-amino-3-(3-hexylbenzothiazol-2(3H)-ylidenemethyl)-4-oxocyclobut-2-enylidenemethyl]-1-hexylquinolin-1-ium iodide (11),FALSE,O=C1C(/C=C2SC(C=CC=C3)=C3N\2CCCCCC)=C(N)/C1=C\C4=[N+](CCCCCCC)C5=C(C=CC=C5)C=C4,693,,DMSO,186209,,,0.05,chloroform,,,,,,693,10.1016/j.bmc.2017.05.022
1666,4_126,1-hexyl-2-[3-(3-hexylbenzothiazol-2(3H)-ylidenemethyl)-2-methylamino-4-oxocyclobut-2-enylidenemethyl]-quinolin-1-ium iodide (12),FALSE,O=C1C(/C=C2SC(C=CC=C3)=C3N\2CCCCCC)=C(NC)/C1=C\C4=[N+](CCCCCCC)C5=C(C=CC=C5)C=C4,704,,DMSO,147911,,,0.04,chloroform,,,,,,704,10.1016/j.bmc.2017.05.022
1667,4_127,TCy5-H ,FALSE,C1(/C=C/C=C/C=C2N(CC3=CC=CC=C3)C(C=CC=C4)=C4S/2)=[N+](CC5=CC=CC=C5)C6=C(C=CC=C6)S1.[Br-],654,675,water,55600,0.11,,0,water,,,,,,654,10.1021/jacs.1c11886
1668,4_128,TCy5-Ph-CF3 ,FALSE,FC(C(C=C1)=CC=C1C(/C=C/C2=[N+](CC3=CC=CC=C3)C4=C(C=CC=C4)S2)=C\C=C5N(CC6=CC=CC=C6)C(C=CC=C7)=C7S\5)(F)F.[Br-],653,671,water,35000,0.039,,0.17,water,,-5.256,-2.844,2.412,theoretical,653,10.1021/jacs.1c11886
1669,4_129,TCy5-Ph-2F,FALSE,FC1=CC(F)=CC(C(/C=C/C2=[N+](CC3=CC=CC=C3)C4=C(C=CC=C4)S2)=C\C=C5N(CC6=CC=CC=C6)C(C=CC=C7)=C7S\5)=C1.[Br-],649,670,water,53100,0.083,,0.2,water,,-5.267,-2.848,2.419,theoretical,649,10.1021/jacs.1c11886
1670,4_130,TCy5-Ph-3F,FALSE,FC1=CC=C(F)C(C(/C=C/C2=[N+](CC3=CC=CC=C3)C4=C(C=CC=C4)S2)=C\C=C5N(CC6=CC=CC=C6)C(C=CC=C7)=C7S\5)=C1F.[Br-],641,660,water,68300,0.122,,0.39,water,,-5.32,-2.862,2.458,theoretical,641,10.1021/jacs.1c11886
1671,4_131,CyH,FALSE,CC1(C)C(/C=C/C(CCC/2)=C(NCCC3=CNC=N3)C2=C\C=C4N(CCC)C(C=CC=C5)=C5C\4(C)C)=[N+](CCC)C6=C1C=CC=C6,635,,water,,,,,,,-4.92,-2.48,2.44,theoretical,"635, 781",10.1021/acsanm.1c00843
1672,4_132,CyFe(II),TRUE,CC(C(C=CC=C1)=C1N2CCC)(C)C2/C=C/C3CCCC(/C3=[N]4CCC5=CNC=[N]5[Fe+2]/4)=C\C=C6N(CCC)C(C=CC=C7)=C7C\6(C)C,781,,water,,,,,,,-5.11,-2.53,2.58,theoretical,"478, 512, 670, 781",10.1021/acsanm.1c00843
1673,5_0,PA,FALSE,C=CC(C(C)=C(/C=C1[C@@H](C)[C@H](CCC(OC/C=C(CCC[C@H](C)CCC[C@H](C)CCCC(C)C)\C)=O)C2=N/1)N3)=C3/C=C4N=C(/C=C5NC(C6=C\5C)=C2C(C(OC)=O)C6=O)C(CC)=C\4C,425,677,toluene,,0.26,,0.62,toluene,,,,,,"425, 506, 537, 610, 667   ",10.1155/2014/793723
1674,5_1,PPE,FALSE,C=CC(C(C)=C(/C=C1[C@@H](C)[C@H](CCC(OCCC)=O)C2=N/1)N3)=C3/C=C4N=C(/C=C5NC(C6=C\5C)=C2C(C(OC)=O)C6=O)C(CC)=C\4C,425,677,toluene,,0.26,,0.66,toluene,,,,,,425,10.1155/2014/793723
1675,5_2,PME,FALSE,C=CC(C(C)=C(/C=C1[C@@H](C)[C@H](CCC(OC)=O)C2=N/1)N3)=C3/C=C4N=C(/C=C5NC(C6=C\5C)=C2C(C(OC)=O)C6=O)C(CC)=C\4C,425,677,toluene,,0.25,,0.62,toluene,,,,,,425,10.1155/2014/793723
1676,5_3,HPA,FALSE,C=CC(C(C)=C(/C=C1[C@@H](C)[C@H](CCC(OC/C=C(CCC[C@H](C)CCC[C@H](C)CCCC(C)C)\C)=O)C2=N/1)N3)=C3/C=C4N=C(/C=C5NC(C6=C\5C)=C2C(C(OC)=O)(O)C6=O)C(CC)=C\4C,425,678,toluene,,0.19,,0.71,toluene,,,,,,"425, 503, 534, 610, 667   ",10.1155/2014/793723
1677,5_4,HPPE,FALSE,C=CC(C(C)=C(/C=C1[C@@H](C)[C@H](CCC(OCCC)=O)C2=N/1)N3)=C3/C=C4N=C(/C=C5NC(C6=C\5C)=C2C(C(OC)=O)(O)C6=O)C(CC)=C\4C,425,678,toluene,,0.18,,0.73,toluene,,,,,,425,10.1155/2014/793723
1678,5_5,HPME,FALSE,C=CC(C(C)=C(/C=C1[C@@H](C)[C@H](CCC(OC)=O)C2=N/1)N3)=C3/C=C4N=C(/C=C5NC(C6=C\5C)=C2C(C(OC)=O)(O)C6=O)C(CC)=C\4C,425,678,toluene,,0.2,,0.7,toluene,,,,,,425,10.1155/2014/793723
1679,5_6,pheophorbide-a,FALSE,C=CC1=C(C)C(/C=C2C(C)C(CCC(O)=O)/C(N/2)=C3\C(C(OC)=O)C4=O)=N/C1=C\C5=C(C)C(CC)=C(/C=C6N=C3C4=C\6C)N5,405,671,THF,,,,0.52,DMF,,,,,,"405, 507, 536, 611, 667",10.1142/S1088424615500546
1680,5_6,pheophorbide-a,FALSE,C=CC1=C(C)C(/C=C2C(C)C(CCC(O)=O)/C(N/2)=C3\C(C(OC)=O)C4=O)=N/C1=C\C5=C(C)C(CC)=C(/C=C6N=C3C4=C\6C)N5,405,,PBS ,,,,0.17,PBS ,,,,,,405,10.1142/S1088424615500546
1681,5_7,triethylene glycol dendron-conjugated pheophorbide-a,FALSE,C=CC1=C(C)C(/C=C2C(C)C(CCC(OCC3=CC(OCC4=CC(OCCOCCOCCOC)=CC(OCCOCCOCCOC)=C4)=CC(OCC5=CC(OCCOCCOCCOC)=CC(OCCOCCOCCOC)=C5)=C3)=O)/C(N/2)=C6\C(C(OC)=O)C7=O)=N/C1=C\C8=C(C)C(CC)=C(/C=C9N=C6C7=C\9C)N8,412,671,THF,,,,0.49,DMF,,,,,,"412, 507, 536, 611, 667",10.1142/S1088424615500546
1682,5_7,triethylene glycol dendron-conjugated pheophorbide-a,FALSE,C=CC1=C(C)C(/C=C2C(C)C(CCC(OCC3=CC(OCC4=CC(OCCOCCOCCOC)=CC(OCCOCCOCCOC)=C4)=CC(OCC5=CC(OCCOCCOCCOC)=CC(OCCOCCOCCOC)=C5)=C3)=O)/C(N/2)=C6\C(C(OC)=O)C7=O)=N/C1=C\C8=C(C)C(CC)=C(/C=C9N=C6C7=C\9C)N8,405,671,PBS,,,,0.22,PBS ,,,,,,"405, 670",10.1142/S1088424615500546
1683,5_8,Pheo-succinimide ester,FALSE,C=CC(C(C)=C(/C=C1C(C)C(CCC(ON2C(CCC2=O)=O)=O)C3=N/1)N4)=C4/C=C5N=C(/C=C6NC(C7=C\6C)=C3C(C(OC)=O)C7=O)C(CC)=C\5C,415,674,ethanol,,,,0.55,ethanol,,,,,,"415, 510, 540, 615, 670",10.1016/S0301-0104(01)00337-8
1684,5_9,Pheo-DAB,FALSE,C=CC(C(C)=C(/C=C1C(C)C(CCC(NCCCN(CCCNC(CCC(C2=N/3)C(C)C3=C\C(N4)=C(C)C(C=C)=C4/C=C5N=C(/C=C6NC(C7=C\6C)=C2C(C(OC)=O)C7=O)C(CC)=C\5C)=O)CCCN(CCCN(CCCNC(CCC(C8=N/9)C(C)C9=C\C(N%10)=C(C)C(C=C)=C%10/C=C%11N=C(/C=C%12NC(C%13=C\%12C)=C8C(C(OC)=O)C%13=O)C(CC)=C\%11C)=O)CCCNC(CCC(C%14=N/%15)C(C)C%15=C\C(N%16)=C(C)C(C=C)=C%16/C=C%17N=C(/C=C%18NC(C%19=C\%18C)=C%14C(C(OC)=O)C%19=O)C(CC)=C\%17C)=O)CCCN(CCCN(CCCN(CCCNC(CCC(C%20=N/%21)C(C)C%21=C\C(N%22)=C(C)C(C=C)=C%22/C=C%23N=C(/C=C%24NC(C%25=C\%24C)=C%20C(C(OC)=O)C%25=O)C(CC)=C\%23C)=O)CCCNC(CCC(C%26=N/%27)C(C)C%27=C\C(N%28)=C(C)C(C=C)=C%28/C=C%29N=C(/C=C%30NC(C%31=C\%30C)=C%26C(C(OC)=O)C%31=O)C(CC)=C\%29C)=O)CCCN(CCCNC(CCC(C%32=N/%33)C(C)C%33=C\C(N%34)=C(C)C(C=C)=C%34/C=C%35N=C(/C=C%36NC(C%37=C\%36C)=C%32C(C(OC)=O)C%37=O)C(CC)=C\%35C)=O)CCCNC(CCC(C%38=N/%39)C(C)C%39=C\C(N%40)=C(C)C(C=C)=C%40/C=C%41N=C(/C=C%42NC(C%43=C\%42C)=C%38C(C(OC)=O)C%43=O)C(CC)=C\%41C)=O)CCCCN(CCCN(CCCN(CCCNC(CCC(C%44=N/%45)C(C)C%45=C\C(N%46)=C(C)C(C=C)=C%46/C=C%47N=C(/C=C%48NC(C%49=C\%48C)=C%44C(C(OC)=O)C%49=O)C(CC)=C\%47C)=O)CCCNC(CCC(C%50=N/%51)C(C)C%51=C\C(N%52)=C(C)C(C=C)=C%52/C=C%53N=C(/C=C%54NC(C%55=C\%54C)=C%50C(C(OC)=O)C%55=O)C(CC)=C\%53C)=O)CCCN(CCCNC(CCC(C%56=N/%57)C(C)C%57=C\C(N%58)=C(C)C(C=C)=C%58/C=C%59N=C(/C=C%60NC(C%61=C\%60C)=C%56C(C(OC)=O)C%61=O)C(CC)=C\%59C)=O)CCCNC(CCC(C%62=N/%63)C(C)C%63=C\C(N%64)=C(C)C(C=C)=C%64/C=C%65N=C(/C=C%66NC(C%67=C\%66C)=C%62C(C(OC)=O)C%67=O)C(CC)=C\%65C)=O)CCCN(CCCN(CCCNC(CCC(C%68=N/%69)C(C)C%69=C\C(N%70)=C(C)C(C=C)=C%70/C=C%71N=C(/C=C%72NC(C%73=C\%72C)=C%68C(C(OC)=O)C%73=O)C(CC)=C\%71C)=O)CCCNC(CCC(C%74=N/%75)C(C)C%75=C\C(N%76)=C(C)C(C=C)=C%76/C=C%77N=C(/C=C%78NC(C%79=C\%78C)=C%74C(C(OC)=O)C%79=O)C(CC)=C\%77C)=O)CCCN(CCCNC(CCC(C%80=N/%81)C(C)C%81=C\C(N%82)=C(C)C(C=C)=C%82/C=C%83N=C(/C=C%84NC(C%85=C\%84C)=C%80C(C(OC)=O)C%85=O)C(CC)=C\%83C)=O)CCCNC(CCC(C%86=N/%87)C(C)C%87=C\C(N%88)=C(C)C(C=C)=C%88/C=C%89N=C(/C=C%90NC(C%91=C\%90C)=C%86C(C(OC)=O)C%91=O)C(CC)=C\%89C)=O)=O)C%92=N/1)N%93)=C%93/C=C%94N=C(/C=C%95NC(C%96=C\%95C)=C%92C(C(OC)=O)C%96=O)C(CC)=C\%94C,415,674,ethanol,,,,0.05,ethanol,,,,,,"415, 625, 685",10.1016/S0301-0104(01)00337-8
1685,5_10,Ga-(OH)-TTP,TRUE,CC(C=C1)=CC=C1/C2=C3N=C(/C(C4=CC=C(C)C=C4)=C(C=C/5)\N6C5=C(C7=CC=C(C)C=C7)/C(C=C/8)=NC8=C(C9=CC=C(C)C=C9)/C%10=CC=C2N%10[Ga]6O)C=C/3,424,653,toluene,400000,0.06,,0.6,toluene,,,,,,"424, 553, 593",10.1016/j.cplett.2005.10.131
1686,5_11,Ga-(OH)-chlorin,TRUE,C=CC1=C(C)/C2=C/C([C@@H](C)[C@@H]/3CCC(OC)=O)=NC3=C(CC4=O)/C5=C4C(C)=C6/C=C(C(CC)=C7C)\N=C7/C=C1\N2[Ga](O)N65,425,666,toluene,100000,0.22,,0.57,toluene,,,,,,"425, 518, 560, 610, 660",10.1016/j.cplett.2005.10.131
1687,5_12,Zn-Pheophorbide,TRUE,C=CC(C(C)=C(C=C1[C@@H](C)[C@H](CCC(O)=O)C2=[N]13)N4[Zn@@]35N(C(C6=C7C)=C2[C@@H](C(OC)=O)C6=O)C7=C8)=C4C=C9[N]5=C8C(CC)=C9C,425,,ethanol,,0.02,,0.41,ethanol,,,,,,"425, 620, 663",10.1016/j.dyepig.2018.04.057
1688,6_0,2( zinc(II) phthalocyanines),TRUE,COCCCC1=CN=CC=C1.COCCCC2=CC=CN=C2.COCCCC3=CN=CC=C3.COCCCC4=CN=CC=C4.C56=[N]7[Zn]8(N9C(N=C%10[N]8=C%11C%12=C%10C=CC=C%12)=C%13C(C=CC=C%13)=C9N=C7C%14=C6C=CC=C%14)N(C(C%15=C%16C=CC=C%15)=N%11)C%16=N5,697,,THF,110000,,,,,,1.03,-0.69,1.72,electrochemistry,,10.1002_aoc.6076
1689,6_1,3( zinc(II) phthalocyanines),TRUE,COCCCC1=CN=CC=C1.COCCCC2=CN=CC=C2.COCCCC3=CN=CC=C3.C45=[N]6[Zn@]7(N8C(N=C9[N]7=C%10C%11=C9C=CC=C%11)=C%12C(C=CC=C%12)=C8N=C6C%13=C5C=CC=C%13)N(C(C%14=C%15C=CC(OCCCC%16=CN=CC=C%16)=C%14)=N%10)C%15=N4,677,,THF,99000,,,,,,1.15,-0.61,1.76,electrochemistry,,10.1002_aoc.6076