,index,name,metal_complex,SMILES,max_absorption_peak,max_emission_peak,solvant_spectrum,molar_extinction_coefficient,quantum_yield_fluorescence,max_phosphorescence_peak,quantum_yield_singlet_oxygen,solvant_quantum_yield,energy_level_exited_triplet_state,energy_level_HUMO,energy_level_LUMO,difference_HOMO_and_LUMO,method_for_HOMO/LUMO,all_absoption_peaks,reference_DOI
2120,9_115,4HB,FALSE,OC1=CC(OC)=C2C(C(C3=C4NCCCCS(=O)(O)=O)=C5C6=C(C(C(OC)=C5C(C(C)=O)=C(C)C3)=O)C(O)=CC(OC)=C26)=C1C4=O,577.5,,DMSO,,,,,,,,,,,,DOI:10.13480/j.issn1003-9430.2013.03.001
2121,9_116,3SB,FALSE,OC1=CC(OC)=C2C(C(C3=C4OC)=C5C6=C(C(C(OC)=C5C(C(C)=NCCCS(=O)(O)=O)=C(C)C3)=O)C(O)=CC(OC)=C26)=C1C4=O,652.5,,DMSO,,,,,,,,,,,,DOI:10.13480/j.issn1003-9430.2013.03.001
2122,9_117,4SB,FALSE,OC1=CC(OC)=C2C(C(C3=C4OC)=C5C6=C(C(C(OC)=C5C(C(C)=NCCCCS(=O)(O)=O)=C(C)C3)=O)C(O)=CC(OC)=C26)=C1C4=O,640,,DMSO,,,,,,,,,,,,DOI:10.13480/j.issn1003-9430.2013.03.001
2123,9_118,CTHB,FALSE,OC1=CC(OC)=C2C3=C(OC)C4=C(NCCS4)C5=C3C(C6=C(NCCC7=CNC8=C7C=CC=C8)C5=O)=C9C2=C1C(C(OC)=C9C(C(C)=C6)C(C)=O)=O,640,800,,,,,,,,,,,,,DOI: 10.1039/d1tb01886h
2124,9_119,AETHB,FALSE,OC1=CC(OC)=C2C3=C(OC)C4=C(NCCS4)C5=C3C(C6=C(OC)C5=O)=C7C2=C1C(C(OC)=C7C(C(C)=O)=C(C)C6)=O,660,710,DMF,,,,0.64,DMF,,,,,,,DOI: 10.1021/acsami.9b18345
2125,9_120,DCHB,FALSE,O=C1C2=C3C(C4=C(OC)C5=C(NCCS5)C6=C4C(C7=C(OC)C6=O)=C3C(C(C(C)=O)=C(C)C7)=C1OC)=C(OC)C8=C2NCCS8,688,720,DMF,,,,0.51,DMF,,,,,,,doi.org/10.1021/acsabm.0c00386
2126,9_121,DAHB,FALSE,O=C(C=C1OC)C2=C(C3=C4C(NCCC5=CC(O)=C(O)C=C5)=C2O)C1=C(C(OC)=C6)C(C3=C(C(C(C)=O)C(C)=C4)C(OC)=C7O)=C7C6=O,640,735,DMF,,,,,,,,,,,,DOI:10.1002/cmdc.201900512
2127,9_122,PyrHA,FALSE,O=C(C(SCCOC(CCCC1=CC=C(C=CC2=CC=C3)C4=C2C3=CC=C41)=O)=C5OC)C6=C(C7=C8C(OC)=C6O)C5=C(C(OC)=C9SCCOC(CCCC%10=C(C=C%11)C%12=C%13C%11=CC=CC%13=CC=C%12C=C%10)=O)C(C7=C(C(C(C)=O)C(C)(O)C8)C(OC)=C%14O)=C%14C9=O,514,420,ethanol,,,,,,,,,,,"312, 326, 342, 514",DOI: 10.1039/c4pp00027g
2128,9_124,DTrpHA,FALSE,O=C(C(SCC(NCCC1=CNC2=C1C=CC=C2)=O)=C3OC)C4=C(C5=C6C(OC)=C4O)C3=C(C(OC)=C7SCC(NCCC8=CNC9=C8C=CC=C9)=O)C(C5=C(C(C(C)=O)C(C)(O)C6)C(OC)=C%10O)=C%10C7=O,600,,ethanol,,,,,,,,,,,,"org/10.1021/jp209969f | J. Phys. Chem. B 2012, 116, 2048−2058"
2129,9_127,VO2+-HA,TRUE,CC(C1)(O)C(C(C)=O)C2=C(C3=C1C(OC)=C(O4)C5=C3C(C(OC)=CC5=[O][V]4(C)(C)=O)=C6C(OC)=C/7)C6=C(C(OC)=C2OC)C7=[O]/C,593,,DMSO-H2O,,,,,,,,,,,"485, 593",org/10.1016/j.bmcl.2012.06.025
2130,9_128,Mg2+ -HB,TRUE,CC(C1)=C(C(C)=O)C2=C(C3=C1C(OC)=C(OC)C4=C3C(C(OC)=C/C4=[O]/C)=C5C(OC)=C6)C5=C7C6=[O][Mg](C)(C)OC7=C2OC,616,640,ethanol,,0.532,,1.2,ethanol,,,,,,"478, 574, 616","Acta Phys. -Chim. Sin. 2011, 27 (11), 2682-2690"
2131,9_129,Zn2+ -HB,TRUE,CC(C1)=C(C(C)=O)C2=C(C3=C1C(OC)=C(OC)C4=C3C(C(OC)=C/C4=[O]/C)=C5C(OC)=C6)C5=C7C6=[O][Zn](C)(C)OC7=C2OC,610,610,ethanol,,0.192,,0.42,ethanol,,,,,,,"Acta Phys. -Chim. Sin. 2011, 27 (11), 2682-2690"
2132,9_130,A AuHA,TRUE,O=C(C=C1OC)C2=C(C3=C4C=C2[OH][Au]([Cl]C)[Cl][Au](C)C)C1=C(C(OC)=C/5)C(C3=C(C(C(C)=O)C(C)(O)C4)C(C)=C6[OH]C)=C6C5=[O]/C.CC,593,604,methanol,,,,,,,,,,,,org/10.1016/j.bmcl.2013.07.064
2133,9_131,B PtHA,TRUE,O=C(C=C1OC)C2=C(C3=C4C=C2[OH][Pt]([Cl]C)(Cl)(Cl)[Cl][Pt](C)(Cl)(Cl)C)C1=C(C(OC)=C/5)C(C3=C(C(C(C)=O)C(C)(O)C4)C(C)=C6[OH]C)=C6C5=[O]/C.CC,593,604,methanol,,,,,,,,,,,,org/10.1016/j.bmcl.2013.07.064
2134,9_132,Ga3+-HA,TRUE,COC(C1=C(C(OC)=C/2)C3=C4C5=C1C/6=C([OH]C)C=C5CC(C)(O)C(OC)C4=C(C)C([OH]C)=C3C2=[O]/C)=CC6=[O]\C.C[Ga]C,593,605,water,,,,,,,,,,,"477, 550, 593",org/10.1016/j.dyepig.2013.09.038
2135,9_133,1 [(VO)2(HB)(phen)2](PF6)2,TRUE,CC(C1)=C(C(C)=O)C(C2=C(C1=C(OC)C3=[O][V]45([N]6=CC=CC7=CC=C8C([N]5=CC=C8)=C67)=O)C9=C3C(O4)=CC(OC)=C9C%10=C(OC)C=C(O%11)C%12=C%102)=C(OC)C%12=[O][V-]%11%13([N]%14=CC=CC%15=CC=C%16C([N+]%13=CC=C%16)=C%14%15)=O,599,,acetonitrile,14200,,,0.83,DMSO,,,,,,"472, 552, 599",DOI: 10.1039/c1dt11401h
2136,9_134,2 [(VO)2(HB)(tmp)2](PF6)2,TRUE,CC(C1)=C(C(C)=O)C(C2=C(C1=C(OC)C3=[O][V]45([N]6=CC(C)=C(C)C7=CC=C8C([N]5=CC(C)=C8C)=C67)=O)C9=C3C(O4)=CC(OC)=C9C%10=C(OC)C=C(O%11)C%12=C%102)=C(OC)C%12=[O][V-]%11%13([N]%14=CC(C)=C(C)C%15=CC=C%16C([N+]%13=CC(C)=C%16C)=C%14%15)=O,618,,acetonitrile,10800,,,0.72,DMSO,,,,,,"500, 618",DOI: 10.1039/c1dt11401h
2137,9_135,3 [(VO)2(HB)(dpq)2](PF6)2,TRUE,CC(C1)=C(C(C)=O)C(C2=C(C1=C(OC)C3=[O][V]45([N]6=CC=CC7=C8C(N=CC=N8)=C9C([N]5=CC=C9)=C67)=O)C%10=C3C(O4)=CC(OC)=C%10C%11=C(OC)C=C(O%12)C%13=C%112)=C(OC)C%13=[O][V-]%12%14([N]%15=CC=CC%16=C%17C(N=CC=N%17)=C%18C([N+]%14=CC=C%18)=C%15%16)=O,608,,acetonitrile,13200,,,0.75,DMSO,,,,,,"495, 608",DOI: 10.1039/c1dt11401h
2138,9_136,[Co2(HB)(tmp)4](PF6)4,TRUE,CC(C1)=C(C(C)=O)C2=C(OC)C3=[O][Co]45([N]6=CC(C)=C(C)C7=CC=C8C([N]4=CC(C)=C8C)=C67)([N]9=CC(C)=C(C)C%10=CC=C%11C([N]5=CC(C)=C%11C)=C9%10)OC%12=CC(OC)=C%13C%14=C(OC)C=C%15C%16=C%14C(C1=C(OC)C%16=[O][Co]%17%18([N]%19=CC(C)=C(C)C%20=CC=C%21C([N]%17=CC(C)=C%21C)=C%19%20)([N]%22=CC(C)=C(C)C%23=CC=C%24C([N]%18=CC(C)=C%24C)=C%22%23)O%15)=C2C%13=C%123.[(PF6)4],626,,acetonitrile,6800,,,0.3,DMSO,,,,,,"520, 626",DOI:10.1016/j.jinorgbio.2011.03.021
2139,9_139,(PPIP)2-Pt2-HA,TRUE,CC1(O)C(C(C)=O)C2=C3C4=C(C(O[Pt]5([N]6=CC=CC7=C6C([N]5=CC=C8)=C8C9=C7N=C(C%10=CC=C(C)C=C%10)N9C%11=CC=CC=C%11)O%12)=C2OC)C%12C=C(OC)C4=C%13C(OC)=CC%14C%15=C%13C3=C(C1)C(OC)=C%15O[Pt]%16([N]%17=CC=CC%18=C%17C([N]%16=CC=C%19)=C%19C%20=C%18N=C(C%21=CC=C(C)C=C%21)N%20C%22=CC=CC=C%22)O%14,500,440,ethanol,,0.91,,,,,,,,,"280, 420, 500",CN 103665050 A