,index,name,metal_complex,SMILES,max_absorption_peak,max_emission_peak,solvant_spectrum,molar_extinction_coefficient,quantum_yield_fluorescence,max_phosphorescence_peak,quantum_yield_singlet_oxygen,solvant_quantum_yield,energy_level_exited_triplet_state,energy_level_HUMO,energy_level_LUMO,difference_HOMO_and_LUMO,method_for_HOMO/LUMO,all_absoption_peaks,reference_DOI
840,2_507,BODIY5,FALSE,CC4=C2N(C(C)=C4)[B]([N]1=C(C)C=C(C)C1=C2C3=CC(C=CC(O)=C5)=C5C=C3)(F)F,500,513,THF,,0.581,,0.442,THF,,,,,,,10.1016/j.jlumin.2017.10.018
841,2_507,BODIY5,FALSE,CC4=C2N(C(C)=C4)[B]([N]1=C(C)C=C(C)C1=C2C3=CC(C=CC(O)=C5)=C5C=C3)(F)F,493,511,Pinacolone,,0.621,,0.382,Pinacolone,,,,,,,10.1016/j.jlumin.2017.10.018
842,2_507,BODIY5,FALSE,CC4=C2N(C(C)=C4)[B]([N]1=C(C)C=C(C)C1=C2C3=CC(C=CC(O)=C5)=C5C=C3)(F)F,498,510,Acetone,,0.483,,0.111,Acetone,,,,,,,10.1016/j.jlumin.2017.10.018
843,2_507,BODIY5,FALSE,CC4=C2N(C(C)=C4)[B]([N]1=C(C)C=C(C)C1=C2C3=CC(C=CC(O)=C5)=C5C=C3)(F)F,498,511,MeOH,,0.11,,0.131,MeOH,,,,,,,10.1016/j.jlumin.2017.10.018
844,2_507,BODIY5,FALSE,CC4=C2N(C(C)=C4)[B]([N]1=C(C)C=C(C)C1=C2C3=CC(C=CC(O)=C5)=C5C=C3)(F)F,496,508,CH3CN,,0.118,,0.081,CH3CN,,,,,,,10.1016/j.jlumin.2017.10.018
845,2_508,BODIY6,FALSE,CC3=[N]2C(C=C3)=C(C4=CC(C=CC(O)=C5)=C5C=C4)C1=CC=C(C)N1[B](F)2F,513,519,n-hexane,,0.269,,0.116,n-hexane,,,,,,,10.1016/j.jlumin.2017.10.018
846,2_508,BODIY6,FALSE,CC3=[N]2C(C=C3)=C(C4=CC(C=CC(O)=C5)=C5C=C4)C1=CC=C(C)N1[B](F)2F,508,513,EtOAc,,0.129,,0.106,EtOAc,,,,,,,10.1016/j.jlumin.2017.10.018
847,2_508,BODIY6,FALSE,CC3=[N]2C(C=C3)=C(C4=CC(C=CC(O)=C5)=C5C=C4)C1=CC=C(C)N1[B](F)2F,510,517,THF,,0.167,,0.19,THF,,,,,,,10.1016/j.jlumin.2017.10.018
848,2_508,BODIY6,FALSE,CC3=[N]2C(C=C3)=C(C4=CC(C=CC(O)=C5)=C5C=C4)C1=CC=C(C)N1[B](F)2F,509,512,Pinacolone,,0.11,,0.317,Pinacolone,,,,,,,10.1016/j.jlumin.2017.10.018
849,2_508,BODIY6,FALSE,CC3=[N]2C(C=C3)=C(C4=CC(C=CC(O)=C5)=C5C=C4)C1=CC=C(C)N1[B](F)2F,508,515,Acetone,,0.101,,0.07,Acetone,,,,,,,10.1016/j.jlumin.2017.10.018
850,2_508,BODIY6,FALSE,CC3=[N]2C(C=C3)=C(C4=CC(C=CC(O)=C5)=C5C=C4)C1=CC=C(C)N1[B](F)2F,507,511,MeOH,,0.03,,0.046,MeOH,,,,,,,10.1016/j.jlumin.2017.10.018
851,2_508,BODIY6,FALSE,CC3=[N]2C(C=C3)=C(C4=CC(C=CC(O)=C5)=C5C=C4)C1=CC=C(C)N1[B](F)2F,507,511,CH3CN,,0.092,,0.011,CH3CN,,,,,,,10.1016/j.jlumin.2017.10.018
852,2_509,naphtyl-substituted BODIPY derivative 1,FALSE,CC2=CC(C)=[N+](C2=C3C4=C(C=CC=C5)C5=C(N(C)C)C=C4)[B-](F)(F)N1C3=C(C)C=C1C,500,515,THF,,0.058,,0.84,toluene,,,,,,,10.1016/j.dyepig.2021.109784
853,2_509,naphtyl-substituted BODIPY derivative 1,FALSE,CC2=CC(C)=[N+](C2=C3C4=C(C=CC=C5)C5=C(N(C)C)C=C4)[B-](F)(F)N1C3=C(C)C=C1C,500,515,THF,,0.004,,0.16,THF,,,,,,,10.1016/j.dyepig.2021.109784
854,2_509,naphtyl-substituted BODIPY derivative 1,FALSE,CC2=CC(C)=[N+](C2=C3C4=C(C=CC=C5)C5=C(N(C)C)C=C4)[B-](F)(F)N1C3=C(C)C=C1C,500,515,THF,,0.005,,0.04,DMSO,,,,,,,10.1016/j.dyepig.2021.109784
855,2_510,naphtyl-substituted BODIPY derivative 2,FALSE,CC2=C(C=O)C(C)=[N+](C2=C3C4=C(C=CC=C5)C5=C(N(C)C)C=C4)[B-](F)(F)N1C3=C(C)C=C1C,495,515,THF,,0.047,,0.29,toluene,,,,,,,10.1016/j.dyepig.2021.109784
856,2_510,naphtyl-substituted BODIPY derivative 2,FALSE,CC2=C(C=O)C(C)=[N+](C2=C3C4=C(C=CC=C5)C5=C(N(C)C)C=C4)[B-](F)(F)N1C3=C(C)C=C1C,495,515,THF,,0.007,,0.05,THF,,,,,,,10.1016/j.dyepig.2021.109784
857,2_510,naphtyl-substituted BODIPY derivative 2,FALSE,CC2=C(C=O)C(C)=[N+](C2=C3C4=C(C=CC=C5)C5=C(N(C)C)C=C4)[B-](F)(F)N1C3=C(C)C=C1C,495,515,THF,,0.005,,0.02,DMSO,,,,,,,10.1016/j.dyepig.2021.109784
858,2_511,naphtyl-substituted BODIPY derivative 3,FALSE,CC(C=C4C)=C2N4[B-](F)(F)[N+]1=C(C)C(C5=NC6=C(C=CC=C6)N5)=C(C)C1=C2C3=CC=CC=C3,515,576,THF,,0.56,,0.1,toluene,,,,,,,10.1016/j.dyepig.2021.109784
859,2_511,naphtyl-substituted BODIPY derivative 3,FALSE,CC(C=C4C)=C2N4[B-](F)(F)[N+]1=C(C)C(C5=NC6=C(C=CC=C6)N5)=C(C)C1=C2C3=CC=CC=C3,515,576,THF,,0.33,,0.15,THF,,,,,,,10.1016/j.dyepig.2021.109784
860,2_511,naphtyl-substituted BODIPY derivative 3,FALSE,CC(C=C4C)=C2N4[B-](F)(F)[N+]1=C(C)C(C5=NC6=C(C=CC=C6)N5)=C(C)C1=C2C3=CC=CC=C3,515,576,THF,,0.14,,0.17,DMSO,,,,,,,10.1016/j.dyepig.2021.109784
861,2_512,Chemiluminogens 2,FALSE,C[C@@]4=[C@]2N([C@](C)=[C@@]4CC)[B@]([N@]1=[C@@](C)[C@@](CC)=[C@@](C)[C@]1=[C@]2[C@@]3=CC=[C@](OC[C@](N=N6)=CN6C[C@@]7=C[C@]([C@@](NN5)=O)=[C@@](C=C7)[C@]5=O)C=C3)(F)F,525,538,DMSO,74100,0.035,,0.048,DMSO,,,,,,"374, 525",10.1021/acsabm.1c00328
862,2_513,Chemiluminogens 3,FALSE,C[C@@]4=[C@]2N([C@](C)=[C@@]4CC)[B]([N@]1=[C@@](C)[C@@](CC)=[C@@](C)[C@]1=[C@]2[C@@]3=C[C@]([C@@](NN[C@@]5=O)=O)=[C@]5C=C3)(F)F,530,548,DMSO,172794,0.132,,0.19,DMSO,,,,,,"374, 530",10.1021/acsabm.1c00328
863,2_514,D1,FALSE,CC4=C2N(C(C)=C4C7=C(C)C([N]6=C7C)=C(C8=CC=CC=C8)C5=C(C)C=C(C)N5[B]6(F)F)[B]([N]1=C(C)C=C(C)C1=C2C3=CC=CC=C3)(F)F,534,572,Hexane,,0.93,,0.1,DMSO,,,,,,,10.1016/j.jlumin.2019.04.030
864,2_514,D1,FALSE,CC4=C2N(C(C)=C4C7=C(C)C([N]6=C7C)=C(C8=CC=CC=C8)C5=C(C)C=C(C)N5[B]6(F)F)[B]([N]1=C(C)C=C(C)C1=C2C3=CC=CC=C3)(F)F,537,574,Toluene,,0.81,,0.1,DMSO,,,,,,,10.1016/j.jlumin.2019.04.030
865,2_514,D1,FALSE,CC4=C2N(C(C)=C4C7=C(C)C([N]6=C7C)=C(C8=CC=CC=C8)C5=C(C)C=C(C)N5[B]6(F)F)[B]([N]1=C(C)C=C(C)C1=C2C3=CC=CC=C3)(F)F,533,573,CH2Cl2,,0.87,,0.1,DMSO,,,,,,,10.1016/j.jlumin.2019.04.030
866,2_514,D1,FALSE,CC4=C2N(C(C)=C4C7=C(C)C([N]6=C7C)=C(C8=CC=CC=C8)C5=C(C)C=C(C)N5[B]6(F)F)[B]([N]1=C(C)C=C(C)C1=C2C3=CC=CC=C3)(F)F,535,575,CHCl3,,0.69,,0.1,DMSO,,,,,,,10.1016/j.jlumin.2019.04.030
867,2_514,D1,FALSE,CC4=C2N(C(C)=C4C7=C(C)C([N]6=C7C)=C(C8=CC=CC=C8)C5=C(C)C=C(C)N5[B]6(F)F)[B]([N]1=C(C)C=C(C)C1=C2C3=CC=CC=C3)(F)F,531,569,EtOAc,,0.72,,0.1,DMSO,,,,,,,10.1016/j.jlumin.2019.04.030
868,2_514,D1,FALSE,CC4=C2N(C(C)=C4C7=C(C)C([N]6=C7C)=C(C8=CC=CC=C8)C5=C(C)C=C(C)N5[B]6(F)F)[B]([N]1=C(C)C=C(C)C1=C2C3=CC=CC=C3)(F)F,534,572,DMSO,,0.06,,0.1,DMSO,,,,,,,10.1016/j.jlumin.2019.04.030
869,2_514,D1,FALSE,CC4=C2N(C(C)=C4C7=C(C)C([N]6=C7C)=C(C8=CC=CC=C8)C5=C(C)C=C(C)N5[B]6(F)F)[B]([N]1=C(C)C=C(C)C1=C2C3=CC=CC=C3)(F)F,529,565,CH3OH,,0.07,,0.1,DMSO,,,,,,,10.1016/j.jlumin.2019.04.030
870,2_514,D1,FALSE,CC4=C2N(C(C)=C4C7=C(C)C([N]6=C7C)=C(C8=CC=CC=C8)C5=C(C)C=C(C)N5[B]6(F)F)[B]([N]1=C(C)C=C(C)C1=C2C3=CC=CC=C3)(F)F,529,568,CH3CN,,0.09,,0.1,DMSO,,,,,,,10.1016/j.jlumin.2019.04.030
871,2_515,D2,FALSE,CC3=C2N(C(C)=C3C6=C(C)C([N]5=C6C)=C(C)C4=C(C)C=C(C)N4[B]5(F)F)[B]([N]1=C(C)C=C(C)C1=C2C)(F)F,530,565,Hexane,,0.94,,0.11,DMSO,,,,,,,10.1016/j.jlumin.2019.04.030
872,2_515,D2,FALSE,CC3=C2N(C(C)=C3C6=C(C)C([N]5=C6C)=C(C)C4=C(C)C=C(C)N4[B]5(F)F)[B]([N]1=C(C)C=C(C)C1=C2C)(F)F,532,569,Toluene,,0.9,,0.11,DMSO,,,,,,,10.1016/j.jlumin.2019.04.030
873,2_515,D2,FALSE,CC3=C2N(C(C)=C3C6=C(C)C([N]5=C6C)=C(C)C4=C(C)C=C(C)N4[B]5(F)F)[B]([N]1=C(C)C=C(C)C1=C2C)(F)F,527,565,CH2Cl2,,0.82,,0.11,DMSO,,,,,,,10.1016/j.jlumin.2019.04.030
874,2_515,D2,FALSE,CC3=C2N(C(C)=C3C6=C(C)C([N]5=C6C)=C(C)C4=C(C)C=C(C)N4[B]5(F)F)[B]([N]1=C(C)C=C(C)C1=C2C)(F)F,530,566,CHCl3,,0.87,,0.11,DMSO,,,,,,,10.1016/j.jlumin.2019.04.030
875,2_515,D2,FALSE,CC3=C2N(C(C)=C3C6=C(C)C([N]5=C6C)=C(C)C4=C(C)C=C(C)N4[B]5(F)F)[B]([N]1=C(C)C=C(C)C1=C2C)(F)F,525,561,EtOAc,,0.69,,0.11,DMSO,,,,,,,10.1016/j.jlumin.2019.04.030
876,2_515,D2,FALSE,CC3=C2N(C(C)=C3C6=C(C)C([N]5=C6C)=C(C)C4=C(C)C=C(C)N4[B]5(F)F)[B]([N]1=C(C)C=C(C)C1=C2C)(F)F,526,564,DMSO,,0.02,,0.11,DMSO,,,,,,,10.1016/j.jlumin.2019.04.030
877,2_515,D2,FALSE,CC3=C2N(C(C)=C3C6=C(C)C([N]5=C6C)=C(C)C4=C(C)C=C(C)N4[B]5(F)F)[B]([N]1=C(C)C=C(C)C1=C2C)(F)F,523,558,CH3OH,,0.03,,0.11,DMSO,,,,,,,10.1016/j.jlumin.2019.04.030
878,2_515,D2,FALSE,CC3=C2N(C(C)=C3C6=C(C)C([N]5=C6C)=C(C)C4=C(C)C=C(C)N4[B]5(F)F)[B]([N]1=C(C)C=C(C)C1=C2C)(F)F,522,559,CH3CN,,0.06,,0.11,DMSO,,,,,,,10.1016/j.jlumin.2019.04.030
879,2_516,D3,FALSE,CC4=C2N(C(C)=C4C7=C(C)C([N]6=C7C)=C(C8=CC(OC)=C(OC)C(OC)=C8)C5=C(C)C(C%10=CC=C(OC)C=C%10)=C(C)N5[B]6(F)F)[B]([N]1=C(C)C(C9=CC=C(OC)C=C9)=C(C)C1=C2C3=CC(OC)=C(OC)C(OC)=C3)(F)F,558,593,Hexane,,0.92,,0.08,DMSO,,,,,,,10.1016/j.jlumin.2019.04.030
880,2_516,D3,FALSE,CC4=C2N(C(C)=C4C7=C(C)C([N]6=C7C)=C(C8=CC(OC)=C(OC)C(OC)=C8)C5=C(C)C(C%10=CC=C(OC)C=C%10)=C(C)N5[B]6(F)F)[B]([N]1=C(C)C(C9=CC=C(OC)C=C9)=C(C)C1=C2C3=CC(OC)=C(OC)C(OC)=C3)(F)F,560,596,Toluene,,0.93,,0.08,DMSO,,,,,,,10.1016/j.jlumin.2019.04.030
881,2_516,D3,FALSE,CC4=C2N(C(C)=C4C7=C(C)C([N]6=C7C)=C(C8=CC(OC)=C(OC)C(OC)=C8)C5=C(C)C(C%10=CC=C(OC)C=C%10)=C(C)N5[B]6(F)F)[B]([N]1=C(C)C(C9=CC=C(OC)C=C9)=C(C)C1=C2C3=CC(OC)=C(OC)C(OC)=C3)(F)F,557,596,CH2Cl2,,0.95,,0.08,DMSO,,,,,,,10.1016/j.jlumin.2019.04.030
882,2_516,D3,FALSE,CC4=C2N(C(C)=C4C7=C(C)C([N]6=C7C)=C(C8=CC(OC)=C(OC)C(OC)=C8)C5=C(C)C(C%10=CC=C(OC)C=C%10)=C(C)N5[B]6(F)F)[B]([N]1=C(C)C(C9=CC=C(OC)C=C9)=C(C)C1=C2C3=CC(OC)=C(OC)C(OC)=C3)(F)F,559,597,CHCl3,,0.83,,0.08,DMSO,,,,,,,10.1016/j.jlumin.2019.04.030
883,2_516,D3,FALSE,CC4=C2N(C(C)=C4C7=C(C)C([N]6=C7C)=C(C8=CC(OC)=C(OC)C(OC)=C8)C5=C(C)C(C%10=CC=C(OC)C=C%10)=C(C)N5[B]6(F)F)[B]([N]1=C(C)C(C9=CC=C(OC)C=C9)=C(C)C1=C2C3=CC(OC)=C(OC)C(OC)=C3)(F)F,556,593,EtOAc,,0.81,,0.08,DMSO,,,,,,,10.1016/j.jlumin.2019.04.030
884,2_516,D3,FALSE,CC4=C2N(C(C)=C4C7=C(C)C([N]6=C7C)=C(C8=CC(OC)=C(OC)C(OC)=C8)C5=C(C)C(C%10=CC=C(OC)C=C%10)=C(C)N5[B]6(F)F)[B]([N]1=C(C)C(C9=CC=C(OC)C=C9)=C(C)C1=C2C3=CC(OC)=C(OC)C(OC)=C3)(F)F,559,597,DMSO,,0.11,,0.08,DMSO,,,,,,,10.1016/j.jlumin.2019.04.030
885,2_516,D3,FALSE,CC4=C2N(C(C)=C4C7=C(C)C([N]6=C7C)=C(C8=CC(OC)=C(OC)C(OC)=C8)C5=C(C)C(C%10=CC=C(OC)C=C%10)=C(C)N5[B]6(F)F)[B]([N]1=C(C)C(C9=CC=C(OC)C=C9)=C(C)C1=C2C3=CC(OC)=C(OC)C(OC)=C3)(F)F,553,591,CH3OH,,0.05,,0.08,DMSO,,,,,,,10.1016/j.jlumin.2019.04.030
886,2_516,D3,FALSE,CC4=C2N(C(C)=C4C7=C(C)C([N]6=C7C)=C(C8=CC(OC)=C(OC)C(OC)=C8)C5=C(C)C(C%10=CC=C(OC)C=C%10)=C(C)N5[B]6(F)F)[B]([N]1=C(C)C(C9=CC=C(OC)C=C9)=C(C)C1=C2C3=CC(OC)=C(OC)C(OC)=C3)(F)F,553,590,CH3CN,,0.08,,0.08,DMSO,,,,,,,10.1016/j.jlumin.2019.04.030
887,2_517,T1,FALSE,CC4=C2N(C(C)=C4C7=C(C)C([N]6=C7C)=C(C8=CC=CC=C8)C5=C(C)C(C%11=C(C)C([N]%10=C%11C)=C(C%12=CC=CC=C%12)C9=C(C)C=C(C)N9[B]%10(F)F)=C(C)N5[B]6(F)F)[B]([N]1=C(C)C=C(C)C1=C2C3=CC=CC=C3)(F)F,562,595,Hexane,,0.91,,0.06,DMSO,,,,,,,10.1016/j.jlumin.2019.04.030
888,2_517,T1,FALSE,CC4=C2N(C(C)=C4C7=C(C)C([N]6=C7C)=C(C8=CC=CC=C8)C5=C(C)C(C%11=C(C)C([N]%10=C%11C)=C(C%12=CC=CC=C%12)C9=C(C)C=C(C)N9[B]%10(F)F)=C(C)N5[B]6(F)F)[B]([N]1=C(C)C=C(C)C1=C2C3=CC=CC=C3)(F)F,563,597,Toluene,,0.96,,0.06,DMSO,,,,,,,10.1016/j.jlumin.2019.04.030
889,2_517,T1,FALSE,CC4=C2N(C(C)=C4C7=C(C)C([N]6=C7C)=C(C8=CC=CC=C8)C5=C(C)C(C%11=C(C)C([N]%10=C%11C)=C(C%12=CC=CC=C%12)C9=C(C)C=C(C)N9[B]%10(F)F)=C(C)N5[B]6(F)F)[B]([N]1=C(C)C=C(C)C1=C2C3=CC=CC=C3)(F)F,559,595,CH2Cl2,,0.84,,0.06,DMSO,,,,,,,10.1016/j.jlumin.2019.04.030
890,2_517,T1,FALSE,CC4=C2N(C(C)=C4C7=C(C)C([N]6=C7C)=C(C8=CC=CC=C8)C5=C(C)C(C%11=C(C)C([N]%10=C%11C)=C(C%12=CC=CC=C%12)C9=C(C)C=C(C)N9[B]%10(F)F)=C(C)N5[B]6(F)F)[B]([N]1=C(C)C=C(C)C1=C2C3=CC=CC=C3)(F)F,561,595,CHCl3,,0.77,,0.06,DMSO,,,,,,,10.1016/j.jlumin.2019.04.030
891,2_517,T1,FALSE,CC4=C2N(C(C)=C4C7=C(C)C([N]6=C7C)=C(C8=CC=CC=C8)C5=C(C)C(C%11=C(C)C([N]%10=C%11C)=C(C%12=CC=CC=C%12)C9=C(C)C=C(C)N9[B]%10(F)F)=C(C)N5[B]6(F)F)[B]([N]1=C(C)C=C(C)C1=C2C3=CC=CC=C3)(F)F,557,592,EtOAc,,0.9,,0.06,DMSO,,,,,,,10.1016/j.jlumin.2019.04.030
892,2_517,T1,FALSE,CC4=C2N(C(C)=C4C7=C(C)C([N]6=C7C)=C(C8=CC=CC=C8)C5=C(C)C(C%11=C(C)C([N]%10=C%11C)=C(C%12=CC=CC=C%12)C9=C(C)C=C(C)N9[B]%10(F)F)=C(C)N5[B]6(F)F)[B]([N]1=C(C)C=C(C)C1=C2C3=CC=CC=C3)(F)F,559,599,DMSO,,0.1,,0.06,DMSO,,,,,,,10.1016/j.jlumin.2019.04.030
893,2_517,T1,FALSE,CC4=C2N(C(C)=C4C7=C(C)C([N]6=C7C)=C(C8=CC=CC=C8)C5=C(C)C(C%11=C(C)C([N]%10=C%11C)=C(C%12=CC=CC=C%12)C9=C(C)C=C(C)N9[B]%10(F)F)=C(C)N5[B]6(F)F)[B]([N]1=C(C)C=C(C)C1=C2C3=CC=CC=C3)(F)F,553,591,CH3OH,,0.13,,0.06,DMSO,,,,,,,10.1016/j.jlumin.2019.04.030
894,2_517,T1,FALSE,CC4=C2N(C(C)=C4C7=C(C)C([N]6=C7C)=C(C8=CC=CC=C8)C5=C(C)C(C%11=C(C)C([N]%10=C%11C)=C(C%12=CC=CC=C%12)C9=C(C)C=C(C)N9[B]%10(F)F)=C(C)N5[B]6(F)F)[B]([N]1=C(C)C=C(C)C1=C2C3=CC=CC=C3)(F)F,553,589,CH3CN,,0.16,,0.06,DMSO,,,,,,,10.1016/j.jlumin.2019.04.030
895,2_518,Ir3,TRUE,[H]C%12=CC%10C(C=C%12)N9C%11=[C@](C=C(C#CC%13=C(C)N([B](F)(F)[N]%14=C(C)C=C(C)C%14=C%15C%16=CC=CC=C%16)C%15=C%13C)C=C%11)[Ir]4([C@]6=CC=CC5=CC=C(C=CC=[N]78)C7=C56)8([C@@H]9N%10CCOCCOCCOC)[N]2=CC=CC1=CC=C(C=CC=[C@@]34)C3=C12,543,610,toluene,75857.7575,,,0.37,acetonitrile,,,,,,"290, 335, 352, 397, 430, 543",10.1039/c9pp00142e
896,2_519,Ir5,TRUE,[H]C1=C[C@]([Ir]5([C@]7=CC=CC6=CC=C(C=CC=[N]89)C8=C67)9([C@H]%11N%10C(C=CC(C#CC%13=C(C)N([B](F)(F)[N]%14=C(C)C=C(C)C%14=C%15C%16=CC=CC=C%16)C%15=C%13C)=C%12)C%12N%11CCOCCOCCOC)[N]3=CC=CC2=CC=C(C=CC=[C@@]45)C4=C23)=C%10C=C1,535,587,toluene,72443.59601,,,0.08,acetonitrile,,,,,,"309, 350, 395, 535",10.1039/c9pp00142e
897,2_520,aza-BODIPY 1a,FALSE,COC(C=C7)=CC=C7C(C=C3C4=CC=CC=C4)=C2N3[B]([N]1=C(C6=CC=CC=C6)C=C(C5=CC=C(OC)C=C5)C1=N2)(F)F,664,691,CHCl3,78000,0.23,,0.08,DMSO,,-6.63,-2.92,-3.71,theoretical,,10.1002/ejoc.201901772
898,2_521,aza-BODIPY 2a,FALSE,F[B]([N]3=C(C7=CC=CC=C7)C=C(C5=CC=C(OC)C=C5)C3=N4)(OC([C@@H](NC(OC(C)(C)C)=O)CCC(N)=O)=O)N1C4=C(C6=CC=C(OC)C=C6)C=C1C2=CC=CC=C2,664,697,CHCl3,53300,0.32,,0.12,DMSO,,-6.74,-2.98,-3.76,theoretical,,10.1002/ejoc.201901772
899,2_522,aza-BODIPY 3a,FALSE,O=C(OC(C)(C)C)N([C@@H]8CCC(N)=O)[B]([N]3=C(C7=CC=CC=C7)C=C(C5=CC=C(OC)C=C5)C3=N4)(OC8=O)N1C4=C(C6=CC=C(OC)C=C6)C=C1C2=CC=CC=C2,642,696,CHCl3,33800,0.13,,0.12,DMSO,,-6.77,-2.93,-3.84,theoretical,,10.1002/ejoc.201901772
900,2_523,aza-BODIPY 4a,FALSE,O=C([C@H](CCC(N)=O)NC(OC(C)(C)C)=O)O[B]([N]3=C(C7=CC=CC=C7)C=C(C5=CC=C(OC)C=C5)C3=N4)(OC([C@H](CCC(N)=O)NC(OC(C)(C)C)=O)=O)N1C4=C(C6=CC=C(OC)C=C6)C=C1C2=CC=CC=C2,667,703,CHCl3,47300,0.23,,0.18,DMSO,,-6.66,-2.93,-3.73,theoretical,,10.1002/ejoc.201901772
901,2_524,aza-BODIPY 1b,FALSE,BrC3=C(C5=CC=C(OC)C=C5)C2=NC1=C(C6=CC=C(OC)C=C6)C(Br)=C(C7=CC=CC=C7)N1[B]([N]2=C3C4=CC=CC=C4)(F)F,653,692,CHCl3,72800,0.01,,0.64,DMSO,,-6.94,-3.11,-3.83,theoretical,,10.1002/ejoc.201901772
902,2_525,aza-BODIPY 2b,FALSE,F[B]([N]3=C(C7=CC=CC=C7)C(Br)=C(C5=CC=C(OC)C=C5)C3=N4)(OC([C@@H](NC(OC(C)(C)C)=O)CCC(N)=O)=O)N1C4=C(C6=CC=C(OC)C=C6)C(Br)=C1C2=CC=CC=C2,654,693,CHCl3,41100,0.01,,0.54,DMSO,,-6.9,-3.14,-3.76,theoretical,,10.1002/ejoc.201901772
903,2_526,aza-BODIPY 3b,FALSE,O=C(OC(C)(C)C)N([C@@H]8CCC(N)=O)[B]([N]3=C(C7=CC=CC=C7)C(Br)=C(C5=CC=C(OC)C=C5)C3=N4)(OC8=O)N1C4=C(C6=CC=C(OC)C=C6)C(Br)=C1C2=CC=CC=C2,644,696,CHCl3,36100,0.01,,0.66,DMSO,,-7,-3.13,-3.87,theoretical,,10.1002/ejoc.201901772
904,2_527,aza-BODIPY 4b,FALSE,O=C([C@H](CCC(N)=O)NC(OC(C)(C)C)=O)O[B]([N]3=C(C7=CC=CC=C7)C(Br)=C(C5=CC=C(OC)C=C5)C3=N4)(OC([C@H](CCC(N)=O)NC(OC(C)(C)C)=O)=O)N1C4=C(C6=CC=C(OC)C=C6)C(Br)=C1C2=CC=CC=C2,648,699,CHCl3,53200,0.01,,0.12,DMSO,,-6.77,-2.96,-3.81,theoretical,,10.1002/ejoc.201901772
905,2_528,B-1,FALSE,F[B]([N]2=C(C)C=C(C)C2=C3C4=CC=C(OCC(N=N%10)=CN%10CCOC9=CC=C(C=C9)C6=C5[N]([B](F)(F)N7C6=C(C)C(I)=C7C)=C(/C=C/C8=CC=C(N(C)C)C=C8)C(I)=C5C)C=C4)(F)N1C3=C(C)C=C1C,497,509,CH3CN/H2O(9:1 v/v),9400,0.0067,,0.069,CH3CN/H2O(9:1 v/v),,,,,,,10.1021/jo5019014
906,2_528,B-1,FALSE,F[B]([N]2=C(C)C=C(C)C2=C3C4=CC=C(OCC(N=N%10)=CN%10CCOC9=CC=C(C=C9)C6=C5[N]([B](F)(F)N7C6=C(C)C(I)=C7C)=C(/C=C/C8=CC=C(N(C)C)C=C8)C(I)=C5C)C=C4)(F)N1C3=C(C)C=C1C,497,,CH3CN/H2O(9:1 v/v) with 100 μL HCl(1.0M),9400,0.0369,,0.69,CH3CN/H2O(9:1 v/v) with 100 μL HCl(1.0M),,,,,,,10.1021/jo5019014
907,2_529,B-2,FALSE,F[B]2(F)[N]1=C(/C=C/C4=CC=C(O)C=C4)C(I)=C(C)C1=C(C6=CC=CC=C6)C3=C(C)C(I)=C(/C=C/C5=CC=C(OCC7=CN(CCOC(C=C%12)=CC=C%12C(C9=C(C)C=C(/C=C/C%11=CC=C(N(C)C)C=C%11)N9[B](F)%10F)=C8[N]%10=C(C)C=C8C)N=N7)C=C5)N23,589,693,CH3CN/H2O(9:1 v/v),109000,0.0046,,0.063,CH3CN/H2O(9:1 v/v),,,,,,,10.1021/jo5019014
908,2_529,B-2,FALSE,F[B]2(F)[N]1=C(/C=C/C4=CC=C(O)C=C4)C(I)=C(C)C1=C(C6=CC=CC=C6)C3=C(C)C(I)=C(/C=C/C5=CC=C(OCC7=CN(CCOC(C=C%12)=CC=C%12C(C9=C(C)C=C(/C=C/C%11=CC=C(N(C)C)C=C%11)N9[B](F)%10F)=C8[N]%10=C(C)C=C8C)N=N7)C=C5)N23,552,,CH3CN/H2O(9:1 v/v) with 100 μL HCl(1.0M),112000,0.0102,,0.563,CH3CN/H2O(9:1 v/v) with 100 μL HCl(1.0M),,,,,,,10.1021/jo5019014
909,2_530,B-3,FALSE,F[B]([N]2=C(/C=C/C5=CC=C(N(C)C)C=C5)C(I)=C(C)C2=C3C4=CC=CC=C4)(F)N1C3=C(C)C(I)=C1C,613,,CH3CN/H2O(9:1 v/v),6500,0.0089,,0.055,CH3CN/H2O(9:1 v/v),,,,,,,10.1021/jo5019014
910,2_530,B-3,FALSE,F[B]([N]2=C(/C=C/C5=CC=C(N(C)C)C=C5)C(I)=C(C)C2=C3C4=CC=CC=C4)(F)N1C3=C(C)C(I)=C1C,575,593,CH3CN/H2O(9:1 v/v) with 100 μL HCl(1.0M),8100,0.0253,,0.798,CH3CN/H2O(9:1 v/v) with 100 μL HCl(1.0M),,,,,,,10.1021/jo5019014
911,2_531,B-4,FALSE,F[B]([N]3=C(/C=C/C6=CC=C(OCC#C)C=C6)C(I)=C(C)C3=C4C5=CC=CC=C5)(F)N1C4=C(C)C(I)=C1/C=C/C2=CC=C(O)C=C2,653,689,CH3CN/H2O(9:1 v/v),8400,0.049,,0.527,CH3CN/H2O(9:1 v/v),,,,,,,10.1021/jo5019014
912,2_531,B-4,FALSE,F[B]([N]3=C(/C=C/C6=CC=C(OCC#C)C=C6)C(I)=C(C)C3=C4C5=CC=CC=C5)(F)N1C4=C(C)C(I)=C1/C=C/C2=CC=C(O)C=C2,654,689,CH3CN/H2O(9:1 v/v) with 100 μL HCl(1.0M),8300,0.05,,0.527,CH3CN/H2O(9:1 v/v) with 100 μL HCl(1.0M),,,,,,,10.1021/jo5019014
913,2_532, brominated BODIPYs 0B,FALSE,F[B]([N]2=CC=CC2=C3C4=CC=CC=C4)(F)N1C3=CC=C1,501,522,toluene,,0.044,,0,toluene,,,,,,,10.1021/jp4013812
914,2_533, brominated BODIPYs  1B,FALSE,F[B]([N]2=CC(Br)=CC2=C3C4=CC=CC=C4)(F)N1C3=CC=C1,521,543,toluene,,0.071,,0.39,toluene,,,,,,,10.1021/jp4013812
915,2_534, brominated BODIPYs  2B,FALSE,F[B]([N]2=CC(Br)=CC2=C3C4=CC=CC=C4)(F)N1C3=CC(Br)=C1,540,565,toluene,,0.053,,0.45,toluene,,,,,,,10.1021/jp4013812
916,2_535, brominated BODIPYs  4B,FALSE,F[B]([N]2=C(Br)C(Br)=CC2=C3C4=CC=CC=C4)(F)N1C3=CC(Br)=C1Br,559,576,toluene,,0.065,,0.49,toluene,,,,,,,10.1021/jp4013812
917,2_536, brominated BODIPYs 6B,FALSE,F[B]([N]2=C(Br)C(Br)=C(Br)C2=C3C4=CC=CC=C4)(F)N1C3=C(Br)C(Br)=C1Br,556,569,toluene,,0.014,,0.64,toluene,,,,,,,10.1021/jp4013812
918,2_537,ADPM 5,FALSE,CC(C(C=C%10)=CC=C%10C1=C(\N=C2/N=C(C5=CC=C(N(C9=CC=CC=C9)C8=CC=CC=C8)C=C5)C=C2C3=CC=C(C(C)(C)C)C=C3)NC(C4=CC=C(N(C7=CC=CC=C7)C6=CC=CC=C6)C=C4)=C1)(C)C,673,,THF,48000,0.0065,,0,THF,,-5.16,-3.56,-1.6,electrochemistry,,10.1002/cphc.202000117
919,2_538,aza-BODIPYs 6,FALSE,F[B@@]([N]3=C(C7=CC=C(N(C%11=CC=CC=C%11)C%10=CC=CC=C%10)C=C7)C=C(C6=CC=C(C(C)(C)C)C=C6)C3=N4)(F)N1C4=C(C5=CC=C(C(C)(C)C)C=C5)C=C1C2=CC=C(N(C9=CC=CC=C9)C8=CC=CC=C8)C=C2,789,,THF,83000,0.0056,,0,THF,,-5.28,-4,-1.28,electrochemistry,,10.1002/cphc.202000117
920,2_539,mono-bromo aza-BODIPY 7,FALSE,F[B@@]([N]3=C(C7=CC=C(N(C%11=CC=CC=C%11)C%10=CC=CC=C%10)C=C7)C(Br)=C(C6=CC=C(C(C)(C)C)C=C6)C3=N4)(F)N1C4=C(C5=CC=C(C(C)(C)C)C=C5)C=C1C2=CC=C(N(C9=CC=CC=C9)C8=CC=CC=C8)C=C2,769,,THF,55000,0.0076,,0.055,THF,,-5.41,-4.06,-1.35,electrochemistry,,10.1002/cphc.202000117
921,2_229,Diiodo-BDP,FALSE,F[B]2(F)[N]1=C(C)C(I)=C(C)C1=C(C4=CC=CC=C4)C3=C(C)C(I)=C(C)N23,537,557,toluene,96000,0.027,,0.61,toluene,,,,,,,10.1021/acs.jpca.8b03884
922,2_229,Diiodo-BDP,FALSE,F[B]2(F)[N]1=C(C)C(I)=C(C)C1=C(C4=CC=CC=C4)C3=C(C)C(I)=C(C)N23,537,557,toluene,96000,0.027,,0.86,CH3CN,,,,,,,10.1021/acs.jpca.8b03884
923,2_541,DiiodoBDP-NDI,FALSE,F[B]2(F)[N]1=C(C)C(I)=C(C)C1=C(C4=CC=C(OCCN5C=C(CNC6=CC8=C7C(C9=CC(NCC%10=CN(CCOC(C=C%14)=CC=C%14C%12=C%11[N]([B](F)(F)N%13C%12=C(C)C(I)=C%13C)=C(C)C(I)=C%11C)N=N%10)=C7C(N(CC(CCCC)CC)C8=O)=O)=C6C(N(CC(CCCC)CC)C9=O)=O)N=N5)C=C4)C3=C(C)C(I)=C(C)N23,537,623,toluene,171000,0.141,,0.33,toluene,,,,,,,10.1021/acs.jpca.8b03884
924,2_541,DiiodoBDP-NDI,FALSE,F[B]2(F)[N]1=C(C)C(I)=C(C)C1=C(C4=CC=C(OCCN5C=C(CNC6=CC8=C7C(C9=CC(NCC%10=CN(CCOC(C=C%14)=CC=C%14C%12=C%11[N]([B](F)(F)N%13C%12=C(C)C(I)=C%13C)=C(C)C(I)=C%11C)N=N%10)=C7C(N(CC(CCCC)CC)C8=O)=O)=C6C(N(CC(CCCC)CC)C9=O)=O)N=N5)C=C4)C3=C(C)C(I)=C(C)N23,537,623,toluene,171000,0.141,,0.35,CH3CN,,,,,,,10.1021/acs.jpca.8b03884
925,2_542,BDP-NDI,FALSE,F[B]2(F)[N]1=C(C)C=C(C)C1=C(C4=CC=C(OCCN5C=C(CNC6=CC8=C7C(C9=CC(NCC%10=CN(CCOC(C=C%14)=CC=C%14C%12=C%11[N]([B](F)(F)N%13C%12=C(C)C=C%13C)=C(C)C=C%11C)N=N%10)=C7C(N(CC(CCCC)CC)C8=O)=O)=C6C(N(CC(CCCC)CC)C9=O)=O)N=N5)C=C4)C3=C(C)C=C(C)N23,503,623,toluene,165000,0.672,,0.3,toluene,,,,,,,10.1021/acs.jpca.8b03884
926,2_542,BDP-NDI,FALSE,F[B]2(F)[N]1=C(C)C=C(C)C1=C(C4=CC=C(OCCN5C=C(CNC6=CC8=C7C(C9=CC(NCC%10=CN(CCOC(C=C%14)=CC=C%14C%12=C%11[N]([B](F)(F)N%13C%12=C(C)C=C%13C)=C(C)C=C%11C)N=N%10)=C7C(N(CC(CCCC)CC)C8=O)=O)=C6C(N(CC(CCCC)CC)C9=O)=O)N=N5)C=C4)C3=C(C)C=C(C)N23,503,623,toluene,165000,0.672,,0.31,CH3CN,,,,,,,10.1021/acs.jpca.8b03884