,index,name,metal_complex,SMILES,max_absorption_peak,max_emission_peak,solvant_spectrum,molar_extinction_coefficient,quantum_yield_fluorescence,max_phosphorescence_peak,quantum_yield_singlet_oxygen,solvant_quantum_yield,energy_level_exited_triplet_state,energy_level_HUMO,energy_level_LUMO,difference_HOMO_and_LUMO,method_for_HOMO/LUMO,all_absoption_peaks,reference_DOI
648,2_401,AN-TMBDP,FALSE,CC5=C2N(C(C)=C5)[B-]([N+]1=C(C)C=C(C)C1=C2C3=C(C=CC=C6)C6=CC4=C3C=CC=C4)(F)F,503,514,ethanol,,0.036,,0.58,ethanol,,,,,,,10.1002/asia.201700794
649,2_401,AN-TMBDP,FALSE,CC5=C2N(C(C)=C5)[B-]([N+]1=C(C)C=C(C)C1=C2C3=C(C=CC=C6)C6=CC4=C3C=CC=C4)(F)F,502,517,CH3CN,,0.009,,0.22,CH3CN,,,,,,,10.1002/asia.201700794
650,2_402,NP-TMBDP,FALSE,CC4=C2N(C(C)=C4)[B-]([N+]1=C(C)C=C(C)C1=C2C3=C(C=CC=C5)C5=CC=C3)(F)F,503,513,n-hexane,,0.87,,0.05,n-hexane,,,,,,,10.1002/asia.201700794
651,2_402,NP-TMBDP,FALSE,CC4=C2N(C(C)=C4)[B-]([N+]1=C(C)C=C(C)C1=C2C3=C(C=CC=C5)C5=CC=C3)(F)F,506,518,toluene,,0.77,,0.043,toluene,,,,,,,10.1002/asia.201700794
652,2_402,NP-TMBDP,FALSE,CC4=C2N(C(C)=C4)[B-]([N+]1=C(C)C=C(C)C1=C2C3=C(C=CC=C5)C5=CC=C3)(F)F,505,514,THF,,0.85,,0.13,THF,,,,,,,10.1002/asia.201700794
653,2_402,NP-TMBDP,FALSE,CC4=C2N(C(C)=C4)[B-]([N+]1=C(C)C=C(C)C1=C2C3=C(C=CC=C5)C5=CC=C3)(F)F,502,511,ethanol,,0.9,,0.041,ethanol,,,,,,,10.1002/asia.201700794
654,2_402,NP-TMBDP,FALSE,CC4=C2N(C(C)=C4)[B-]([N+]1=C(C)C=C(C)C1=C2C3=C(C=CC=C5)C5=CC=C3)(F)F,500,510,CH3CN,,0.83,,0.057,CH3CN,,,,,,,10.1002/asia.201700794
655,2_403,Ph-TMBDP,FALSE,CC4=C2N(C(C)=C4)[B-]([N+]1=C(C)C=C(C)C1=C2C3=CC=CC=C3)(F)F,501,511,n-hexane,,0.56,,0.05,n-hexane,,,,,,,10.1002/asia.201700794
656,2_403,Ph-TMBDP,FALSE,CC4=C2N(C(C)=C4)[B-]([N+]1=C(C)C=C(C)C1=C2C3=CC=CC=C3)(F)F,503,516,Toluene,,0.62,,0.023,Toluene,,,,,,,10.1002/asia.201700794
657,2_403,Ph-TMBDP,FALSE,CC4=C2N(C(C)=C4)[B-]([N+]1=C(C)C=C(C)C1=C2C3=CC=CC=C3)(F)F,500,512,THF,,0.56,,0.13,THF,,,,,,,10.1002/asia.201700794
658,2_403,Ph-TMBDP,FALSE,CC4=C2N(C(C)=C4)[B-]([N+]1=C(C)C=C(C)C1=C2C3=CC=CC=C3)(F)F,497,508,CH3CN,,0.52,,0.017,CH3CN,,,,,,,10.1002/asia.201700794
659,2_404,TMBDP,FALSE,[H]C(C2=C(C)C=C(C)N2[B-](F)3F)=C1[N+]3=C(C)C=C1C,509,518,toluene,,0.92,,0.061,toluene,,,,,,,10.1002/asia.201700794
660,2_404,TMBDP,FALSE,[H]C(C2=C(C)C=C(C)N2[B-](F)3F)=C1[N+]3=C(C)C=C1C,503,510,ethanol,,0.99,,0.058,ethanol,,,,,,,10.1002/asia.201700794
661,2_404,TMBDP,FALSE,[H]C(C2=C(C)C=C(C)N2[B-](F)3F)=C1[N+]3=C(C)C=C1C,501,508,CH3CN,,1,,0.069,CH3CN,,,,,,,10.1002/asia.201700794
662,2_405,BODIPYs 4,FALSE,BrC(C=C4)=[N](C4=C2C3=CC=C(Br)S3)[B](F)(F)N1C2=CC=C1Br,513,667,Acetonitrile,22000,0.37,,0.39,Acetonitrile,,,,,,,10.1016/j.poly.2019.114207
663,2_405,BODIPYs 4,FALSE,BrC(C=C4)=[N](C4=C2C3=CC=C(Br)S3)[B](F)(F)N1C2=CC=C1Br,519,661,Ethanol,25200,0.21,,0.84,Ethanol,,,,,,,10.1016/j.poly.2019.114207
664,2_405,BODIPYs 4,FALSE,BrC(C=C4)=[N](C4=C2C3=CC=C(Br)S3)[B](F)(F)N1C2=CC=C1Br,511,665,Methanol,25500,0.36,,0.3,Methanol,,,,,,,10.1016/j.poly.2019.114207
665,2_405,BODIPYs 4,FALSE,BrC(C=C4)=[N](C4=C2C3=CC=C(Br)S3)[B](F)(F)N1C2=CC=C1Br,520,660,Water/etanol,20100,0.22,,0.31,Water/ethanol(8:2 v/v),,,,,,,10.1016/j.poly.2019.114207
666,2_406,BODIPYs 6,FALSE,BrC(S4)=CC=C4C(C2=CC(Br)=CN2[B](F)3F)=C1[N]3=CC(Br)=C1,548,684,Acetonitrile,26500,0.32,,0.93,Acetonitrile,,,,,,,10.1016/j.poly.2019.114207
667,2_406,BODIPYs 6,FALSE,BrC(S4)=CC=C4C(C2=CC(Br)=CN2[B](F)3F)=C1[N]3=CC(Br)=C1,554,682,Ethanol,23600,0.27,,0.78,Ethanol,,,,,,,10.1016/j.poly.2019.114207
668,2_406,BODIPYs 6,FALSE,BrC(S4)=CC=C4C(C2=CC(Br)=CN2[B](F)3F)=C1[N]3=CC(Br)=C1,550,684,Methanol,24600,0.31,,0.61,Methanol,,,,,,,10.1016/j.poly.2019.114207
669,2_406,BODIPYs 6,FALSE,BrC(S4)=CC=C4C(C2=CC(Br)=CN2[B](F)3F)=C1[N]3=CC(Br)=C1,550,677,Water/etanol,17700,0.28,,0.82,Water/ethanol(8:2 v/v),,,,,,,10.1016/j.poly.2019.114207
670,2_407,BODIPYs 7,FALSE,BrC(S4)=CC=C4C(C2=CC=CN2[B](F)3F)=C1[N]3=CC(Br)=C1,526,663,Acetonitrile,31200,0.34,,0.74,Acetonitrile,,,,,,,10.1016/j.poly.2019.114207
671,2_407,BODIPYs 7,FALSE,BrC(S4)=CC=C4C(C2=CC=CN2[B](F)3F)=C1[N]3=CC(Br)=C1,529,672,Ethanol,50900,0.49,,0.44,Ethanol,,,,,,,10.1016/j.poly.2019.114207
672,2_407,BODIPYs 7,FALSE,BrC(S4)=CC=C4C(C2=CC=CN2[B](F)3F)=C1[N]3=CC(Br)=C1,527,673,Methanol,30700,0.46,,0.19,Methanol,,,,,,,10.1016/j.poly.2019.114207
673,2_407,BODIPYs 7,FALSE,BrC(S4)=CC=C4C(C2=CC=CN2[B](F)3F)=C1[N]3=CC(Br)=C1,528,671,Water/etanol,32600,0.35,,0.35,Water/ethanol(8:2 v/v),,,,,,,10.1016/j.poly.2019.114207
674,2_408,bodipy-functionalized cyclotriphosphazenes 6,FALSE,CC1=C(I)C(/C=C/C4=CC=C(OC)C=C4)=[N]3C1=C(C6=CC=C(OCCCN7C=C(CO[P@@]8(OC)=N[P@](OC)(OC)=N[P@@](OC)(OC)=N8)N=N7)C=C6)C2=C(C)C(I)=C(/C=C/C5=CC=C(OC)C=C5)N2[B](F)3F,660,685,dichloromethane,81000,,,0.66,dichloromethane,,,,,,,10.1007/s10895-016-1987-9
675,2_409,bodipy-functionalized cyclotriphosphazenes 7,FALSE,CC1=C(I)C(/C=C/C4=CC=C(Br)C=C4)=[N]3C1=C(C6=CC=C(OCCCN7C=C(CO[P@@]8(OC)=N[P@@](OC)(OC)=N[P@@](OC)(OC)=N8)N=N7)C=C6)C2=C(C)C(I)=C(/C=C/C5=CC=C(Br)C=C5)N2[B](F)3F,642,660,dichloromethane,98000,,,0.54,dichloromethane,,,,,,,10.1007/s10895-016-1987-9
676,2_410,bodipy-functionalized cyclotriphosphazenes 8,FALSE,CC1=C(I)C(/C=C/C4=CC=C([H])C=C4)=[N]3C1=C(C6=CC=C(OCCCN7C=C(CO[P@@]8(OC)=N[P@](OC)(OC)=N[P@@](OC)(OC)=N8)N=N7)C=C6)C2=C(C)C(I)=C(/C=C/C5=CC=C([H])C=C5)N2[B](F)3F,638,650,dichloromethane,74000,,,0.51,dichloromethane,,,,,,,10.1007/s10895-016-1987-9
677,2_411,DBD1,FALSE,CC4=C2N(C(/C=C/C5=CC(OCCOCCOCCOC)=C(OCCOCCOCCOC)C(OCCOCCOCCOC)=C5)=C4[H])[B](F)(F)[N]1=C(/C=C/C6=CC(OCCOCCOCCOC)=C(OCCOCCOCCOC)C(OCCOCCOCCOC)=C6)C([H])=C(C)C1=C2C3=CC=C(OCCCCN=[N+]=[N-])C=C3,646,664,DMSO,72500,0.35,,0.01,DMSO,,,,,,,10.1039/D0NJ02455D
678,2_412,DBD2,FALSE,CC4=C2N(C(/C=C/C5=CC(OCCOCCOCCOC)=C(OCCOCCOCCOC)C(OCCOCCOCCOC)=C5)=C4Br)[B](F)(F)[N]1=C(/C=C/C6=CC(OCCOCCOCCOC)=C(OCCOCCOCCOC)C(OCCOCCOCCOC)=C6)C(Br)=C(C)C1=C2C3=CC=C(OCCCCN=[N+]=[N-])C=C3,663,700,DMSO,97900,0.15,,0.24,DMSO,,,,,,,10.1039/D0NJ02455D
679,2_413,DBD3,FALSE,CC4=C2N(C(/C=C/C5=CC(OCCOCCOCCOC)=C(OCCOCCOCCOC)C(OCCOCCOCCOC)=C5)=C4I)[B](F)(F)[N]1=C(/C=C/C6=CC(OCCOCCOCCOC)=C(OCCOCCOCCOC)C(OCCOCCOCCOC)=C6)C(I)=C(C)C1=C2C3=CC=C(OCCCCN=[N+]=[N-])C=C3,660,696,DMSO,66500,0.09,,0.73,DMSO,,,,,,,10.1039/D0NJ02455D
680,2_414,SP-DBD1,FALSE,CC4=C2N(C(/C=C/C5=CC(OCCOCCOCCOC)=C(OCCOCCOCCOC)C(OCCOCCOCCOC)=C5)=C4[H])[B](F)(F)[N]1=C(/C=C/C7=CC(OCCOCCOCCOC)=C(OCCOCCOCCOC)C(OCCOCCOCCOC)=C7)C([H])=C(C)C1=C2C3=CC=C(OCCCCN6C=C(CO[B]8(N%12%13)N9C%10=NC%12=C%16C(C=CC=C%16)=C%13N=C%14[N]8=C(C%15=C%14C=CC=C%15)N=C9C%11=C%10C=CC=C%11)N=N6)C=C3,646,662,DMSO,108500,0.3,,0.08,DMSO,,,,,,,10.1039/D0NJ02455D
681,2_415,SP-DBD2,FALSE,CC4=C2N(C(/C=C/C5=CC(OCCOCCOCCOC)=C(OCCOCCOCCOC)C(OCCOCCOCCOC)=C5)=C4Br)[B](F)(F)[N]1=C(/C=C/C7=CC(OCCOCCOCCOC)=C(OCCOCCOCCOC)C(OCCOCCOCCOC)=C7)C(Br)=C(C)C1=C2C3=CC=C(OCCCCN6C=C(CO[B]8(N%12%13)N9C%10=NC%12=C%16C(C=CC=C%16)=C%13N=C%14[N]8=C(C%15=C%14C=CC=C%15)N=C9C%11=C%10C=CC=C%11)N=N6)C=C3,664,701,DMSO,68500,0.1,,0.35,DMSO,,,,,,,10.1039/D0NJ02455D
682,2_416,SP-DBD3,FALSE,CC4=C2N(C(/C=C/C5=CC(OCCOCCOCCOC)=C(OCCOCCOCCOC)C(OCCOCCOCCOC)=C5)=C4I)[B](F)(F)[N]1=C(/C=C/C7=CC(OCCOCCOCCOC)=C(OCCOCCOCCOC)C(OCCOCCOCCOC)=C7)C(I)=C(C)C1=C2C3=CC=C(OCCCCN6C=C(CO[B]8(N%12%13)N9C%10=NC%12=C%16C(C=CC=C%16)=C%13N=C%14[N]8=C(C%15=C%14C=CC=C%15)N=C9C%11=C%10C=CC=C%11)N=N6)C=C3,660,700,DMSO,46200,0.04,,0.91,DMSO,,,,,,,10.1039/D0NJ02455D
683,2_417,BOD-1,FALSE,CC2=C(/C=C(Br)\Br)C(C)=[N](C2=C3C4=CC=CC=C4)[B](F)(F)N1C3=C(C)C=C1C,513,533,CH2Cl2,89000,0.095,,0.72,CH2Cl2,,,,,,, 10.1039/d1cc01881g
684,2_418,BOD-2,FALSE,CC2=C(/C=C(Br)\Br)C(C)=[N](C2=C3C4=CC=CC=C4)[B](F)(F)N1C3=C(C)C(/C=C(Br)\Br)=C1C,525,552,CH2Cl2,93000,0.11,,0.64,CH2Cl2,,,,,,, 10.1039/d1cc01881g
685,2_419,2BrBOD,FALSE,[R]C(C2=C(C)C(Br)=C(C)N2[B](F)3F)=C1[N]3=C(C)C(Br)=C1C,538,569,CH2Cl2,41000,0.07,,0.21,CH2Cl2,,,,,,, 10.1039/d1cc01881g
686,2_420,2IBOD,FALSE,[R]C(C2=C(C)C(I)=C(C)N2[B](F)3F)=C1[N]3=C(C)C(I)=C1C,533,552,CH2Cl2,89000,0.027,,0.79,CH2Cl2,,,,,,, 10.1039/d1cc01881g
687,2_421,aza-BODIPY dyes A,FALSE,F[B]([N]3=C(C5=CC=C(OC)C=C5)C=C(C6=CC=CC=C6)C3=N4)(F)N1C4=C(C7=CC=CC=C7)C=C1C2=CC=C(OC)C=C2,688,725,chloroform,99000,0.36,,0.02,DMF,,,,,,,10.1021/acs.jmedchem.0c00882
688,2_422,aza-BODIPY dyes 1,FALSE,F[B]([N]3=C(C5=CC=C(OC)C=C5)C(Br)=C(C6=CC=CC=C6)C3=N4)(F)N1C4=C(C7=CC=CC=C7)C(Br)=C1C2=CC=C(OC)C=C2,679,720,chloroform,77000,0.17,,0.14,DMF,,,,,,,10.1021/acs.jmedchem.0c00882
689,2_423,aza-BODIPY dyes 2,FALSE,F[B]([N]3=C(C5=CC=C(OC)C=C5)C(I)=C(C6=CC=CC=C6)C3=N4)(F)N1C4=C(C7=CC=CC=C7)C(I)=C1C2=CC=C(OC)C=C2,679,723,chloroform,74000,0.03,,0.24,DMF,,,,,,,10.1021/acs.jmedchem.0c00882
690,2_424,aza-BODIPY dyes 3,FALSE,F[B]([N]3=C(C5=CC=C(OC)C=C5)C(Br)=C(C6=CC=CC=C6)C3=N4)(F)N1C4=C(C7=CC=CC=C7)C=C1C2=CC=C(OC)C=C2,679,720,chloroform,81000,0.34,,0.1,DMF,,,,,,,10.1021/acs.jmedchem.0c00882
691,2_425,aza-BODIPY dyes 4,FALSE,F[B]([N]3=C(C5=CC=C(OC)C=C5)C(I)=C(C6=CC=CC=C6)C3=N4)(F)N1C4=C(C7=CC=CC=C7)C=C1C2=CC=C(OC)C=C2,678,721,chloroform,97000,0.08,,0.52,DMF,,,,,,,10.1021/acs.jmedchem.0c00882
692,2_426,aza-BODIPY dyes 5,FALSE,F[B]([N]3=C(C5=CC=C(OC)C=C5)C(I)=C(C6=CC=CC=C6)C3=N4)(F)N1C4=C(C7=CC=CC=C7)C(Br)=C1C2=CC=C(OC)C=C2,679,720,chloroform,76000,0.07,,0.29,DMF,,,,,,,10.1021/acs.jmedchem.0c00882
693,2_427,aza-BODIPY dyes 6,FALSE,F[B]([N]3=C(C5=CC=C(C)C=C5)C(Br)=C(C6=CC=CC=C6)C3=N4)(F)N1C4=C(C7=CC=CC=C7)C(Br)=C1C2=CC=C(C)C=C2,658,685,chloroform,79900,0.04,,0.1,DMF,,,,,,,10.1021/acs.jmedchem.0c00882
694,2_428,aza-BODIPY dyes 7,FALSE,F[B]([N]3=C(C5=CC=C(C)C=C5)C(I)=C(C6=CC=CC=C6)C3=N4)(F)N1C4=C(C7=CC=CC=C7)C(I)=C1C2=CC=C(C)C=C2,662,688,chloroform,92000,0.02,,0.12,DMF,,,,,,,10.1021/acs.jmedchem.0c00882
695,2_429,aza-BODIPY dyes 8,FALSE,F[B]([N]3=C(C5=CC=C(C)C=C5)C(Br)=C(C6=CC=CC=C6)C3=N4)(F)N1C4=C(C7=CC=CC=C7)C([H])=C1C2=CC=C(C)C=C2,658,685,chloroform,83600,0.19,,0.05,DMF,,,,,,,10.1021/acs.jmedchem.0c00882
696,2_430,aza-BODIPY dyes 9,FALSE,F[B]([N]3=C(C5=CC=C(C)C=C5)C(I)=C(C6=CC=CC=C6)C3=N4)(F)N1C4=C(C7=CC=CC=C7)C([H])=C1C2=CC=C(C)C=C2,659,690,chloroform,89600,0.04,,0.14,DMF,,,,,,,10.1021/acs.jmedchem.0c00882
697,2_431,aza-BODIPY dyes 10,FALSE,F[B]([N]3=C(C5=CC=C(C)S5)C(I)=C(C7=CC=CC=C7)C3=N4)(F)N1C4=C(C6=CC=CC=C6)C(I)=C1C2=CC=C(C)S2,732,768,chloroform,91300,0.07,,0.14,DMF,,,,,,,10.1021/acs.jmedchem.0c00882
698,2_432,aza-BODIPY dyes 11,FALSE,F[B]([N]3=C(C5=CC=C(C)S5)C(I)=C(C6=CC=CC=C6)C3=N4)(F)N1C4=C(C7=CC=CC=C7)C([H])=C1C2=CC=C(C)S2,732,766,chloroform,71700,0.11,,0.17,DMF,,,,,,,10.1021/acs.jmedchem.0c00882
699,2_433,aza-BODIPY dyes 12,FALSE,[p-MeOPh]C(C(Br)=C5C6=CC=CC=C6)=[N](C5=N4)[B](F)(F)N1C4=C(C7=CC=CC=C7)C3=C1C2=CC=C(OC)C=C2CC3,692,724,chloroform,90300,0.44,,0.08,DMF,,,,,,,10.1021/acs.jmedchem.0c00882
700,2_434,aza-BODIPY dyes 13,FALSE,[p-MePh]C(C(Br)=C5C6=CC=CC=C6)=[N](C5=N4)[B](F)(F)N1C4=C(C7=CC=CC=C7)C3=C1C2=CC=C(OC)C=C2CC3,682,709,chloroform,104400,0.6,,0.08,DMF,,,,,,,10.1021/acs.jmedchem.0c00882
701,2_435,aza-BODIPY dyes 14,FALSE,[5-Me-thiophen-2-yl]C(C(Br)=C5C6=CC=CC=C6)=[N](C5=N4)[B](F)(F)N1C4=C(C7=CC=CC=C7)C3=C1C2=CC=C(OC)C=C2CC3,714,753,chloroform,73700,0.24,,0.11,DMF,,,,,,,10.1021/acs.jmedchem.0c00882
702,2_436,aza-BODIPY dyes 15,FALSE,[p-MeOPh]C(C(I)=C5C6=CC=CC=C6)=[N](C5=N4)[B](F)(F)N1C4=C(C7=CC=CC=C7)C3=C1C2=CC=C(OC)C=C2CC3,689,725,chloroform,101300,0.14,,0.51,DMF,,,,,,,10.1021/acs.jmedchem.0c00882
703,2_437,aza-BODIPY dyes 16,FALSE,[p-MePh]C(C(I)=C5C6=CC=CC=C6)=[N](C5=N4)[B](F)(F)N1C4=C(C7=CC=CC=C7)C3=C1C2=CC=C(OC)C=C2CC3,682,709,chloroform,110000,0.17,,0.16,DMF,,,,,,,10.1021/acs.jmedchem.0c00882
704,2_438,aza-BODIPY dyes 17,FALSE,[5-Me-thiophen-2-yl]C(C(I)=C5C6=CC=CC=C6)=[N](C5=N4)[B](F)(F)N1C4=C(C7=CC=CC=C7)C3=C1C2=CC=C(OC)C=C2CC3,716,756,chloroform,76900,0.16,,0.25,DMF,,,,,,,10.1021/acs.jmedchem.0c00882
705,2_439,aza-BODIPY dyes 18,FALSE,[thiophen-2-yl]C(C(I)=C5C6=CC=CC=C6)=[N](C5=N4)[B](F)(F)N1C4=C(C7=CC=CC=C7)C3=C1C2=CC=C(OC)C=C2CC3,695,740,chloroform,81500,0.16,,0.19,DMF,,,,,,,10.1021/acs.jmedchem.0c00882
706,2_440,TMBDP,FALSE,CC2=C1N(C(C)=C2[H])[B](F)(F)[N](C(C(C)=C3[H])=C1)=C3C,507,511,n-hexane,,0.96,,0.041,hexane,,,,,,,10.1016/j.jphotochem.2017.07.019
707,2_440,TMBDP,FALSE,CC2=C1N(C(C)=C2[H])[B](F)(F)[N](C(C(C)=C3[H])=C1)=C3C,507,513,DCM,,0.93,,0.076,DCM,,,,,,,10.1016/j.jphotochem.2017.07.019
708,2_440,TMBDP,FALSE,CC2=C1N(C(C)=C2[H])[B](F)(F)[N](C(C(C)=C3[H])=C1)=C3C,504,510,Ethanol,,0.97,,0.047,Ethanol,,,,,,,10.1016/j.jphotochem.2017.07.019
709,2_441,TMBDP-Dimer,FALSE,CC2=C1N(C(C)=C2C5=C3[N]([B](F)(F)N6C5=C(C)C([H])=C6C)=C(C)C([H])=C3C)[B](F)(F)[N](C(C(C)=C4[H])=C1)=C4C,509,527,n-hexane,,0.87,,0.13,hexane,,,,,,,10.1016/j.jphotochem.2017.07.019
710,2_441,TMBDP-Dimer,FALSE,CC2=C1N(C(C)=C2C5=C3[N]([B](F)(F)N6C5=C(C)C([H])=C6C)=C(C)C([H])=C3C)[B](F)(F)[N](C(C(C)=C4[H])=C1)=C4C,511,528,DCM,,0.0029,,0.45,DCM,,,,,,,10.1016/j.jphotochem.2017.07.019
711,2_441,TMBDP-Dimer,FALSE,CC2=C1N(C(C)=C2C5=C3[N]([B](F)(F)N6C5=C(C)C([H])=C6C)=C(C)C([H])=C3C)[B](F)(F)[N](C(C(C)=C4[H])=C1)=C4C,506,521,Ethanol,,0.0016,,0.1,Ethanol,,,,,,,10.1016/j.jphotochem.2017.07.019
712,2_442,I2-TMBDP,FALSE,CC2=C1N(C(C)=C2I)[B](F)(F)[N](C(C(C)=C3I)=C1)=C3C,541,551,n-hexane,,0.056,,0.95,hexane,,,,,,,10.1016/j.jphotochem.2017.07.019
713,2_442,I2-TMBDP,FALSE,CC2=C1N(C(C)=C2I)[B](F)(F)[N](C(C(C)=C3I)=C1)=C3C,540,554,DCM,,0.041,,0.96,DCM,,,,,,,10.1016/j.jphotochem.2017.07.019
714,2_442,I2-TMBDP,FALSE,CC2=C1N(C(C)=C2I)[B](F)(F)[N](C(C(C)=C3I)=C1)=C3C,534,552,Ethanol,,0.026,,0.98,Ethanol,,,,,,,10.1016/j.jphotochem.2017.07.019
715,2_443,I3-TMBDP-Dimer,FALSE,CC2=C1N(C(C)=C2C5=C3[N]([B](F)(F)N6C5=C(C)C(I)=C6C)=C(C)C(I)=C3C)[B](F)(F)[N](C(C(C)=C4I)=C1)=C4C,539,556,n-hexane,,0.043,,0.95,hexane,,,,,,,10.1016/j.jphotochem.2017.07.019
716,2_443,I3-TMBDP-Dimer,FALSE,CC2=C1N(C(C)=C2C5=C3[N]([B](F)(F)N6C5=C(C)C(I)=C6C)=C(C)C(I)=C3C)[B](F)(F)[N](C(C(C)=C4I)=C1)=C4C,538,561,DCM,,0.021,,0.84,DCM,,,,,,,10.1016/j.jphotochem.2017.07.019
717,2_443,I3-TMBDP-Dimer,FALSE,CC2=C1N(C(C)=C2C5=C3[N]([B](F)(F)N6C5=C(C)C(I)=C6C)=C(C)C(I)=C3C)[B](F)(F)[N](C(C(C)=C4I)=C1)=C4C,533,551,Ethanol,,0.01,,0.88,Ethanol,,,,,,,10.1016/j.jphotochem.2017.07.019
718,2_444,BDP,FALSE,CC2=C1N(C(C)=C2)[B](F)(F)[N](C(C(C)=C3)=C1)=C3C,493,510,MeOH,92500,0.77,,,,,-5.13,-2.64,-2.49,electrochemistry,,10.1039/C6PP00307A
719,2_445,BDP-DPA,FALSE,CC3=C1N(C(C)=C3)[B](F)(F)[N](C(C(C)=C4)=C1CN(CC5=CC=CC=N5)CC2=NC=CC=C2)=C4C,495,511,MeOH,74400,0.17,,,,,-5.12,-2.67,-2.48,electrochemistry,,10.1039/C6PP00307A
720,2_446,BDP,FALSE,F[B@@-]([N+]2=CC=CC2=C3)(F)N1C3=CC=C1,502,509,n-hexane,,0.92,,0.12,air-saturated n-hexane,,,,,,,10.1016/j.jlumin.2019.04.050
721,2_446,BDP,FALSE,F[B@@-]([N+]2=CC=CC2=C3)(F)N1C3=CC=C1,505,512,CHCl3,,0.95,,0.13,air-saturated CHCl3,,,,,,,10.1016/j.jlumin.2019.04.050
722,2_446,BDP,FALSE,F[B@@-]([N+]2=CC=CC2=C3)(F)N1C3=CC=C1,498,507,ethanol,,0.92,,0.13,air-saturated ethanol,,,,,,,10.1016/j.jlumin.2019.04.050
723,2_446,BDP,FALSE,F[B@@-]([N+]2=CC=CC2=C3)(F)N1C3=CC=C1,500,510,MeCN,,0.93,,0.12,air-saturated MeCN,,,,,,,10.1016/j.jlumin.2019.04.050
724,2_446,BDP,FALSE,F[B@@-]([N+]2=CC=CC2=C3)(F)N1C3=CC=C1,496,505,methanol,,0.96,,0.082,air-saturated methanol,,,,,,,10.1016/j.jlumin.2019.04.050
725,2_447,BODIPY dye 4,FALSE,F[B-]([N+]2=C(C)C(Br)=C(C)C2=C3C4=C(Br)C(Br)=C(N)C(Br)=C4Br)(F)N1C3=C(C)C(Br)=C1C,532,548,DMSO,,0.09,,0.64,DMSO,,,,,,,10.1142/S108842461650070X
726,2_448,BODIPY dye 4-AuNPS,TRUE,F[B-2]([N]2=C(C)C(Br)=C(C)C2=C3C4=C(Br)C(Br)=C(N([H])[H])C(Br)=C4Br)(F)N1C3=C(C)C(Br)=C1C.F[B]6(F)[N]5=C(C)C(Br)=C(C)C5=C(C8=C(Br)C(Br)=C(N([H])[H])C(Br)=C8Br)C7=C(C)C(Br)=C(C)[NH+]67.F[B-]%10(F)[N]9=C(C)C(Br)=C(C)C9=C(C%12=C(Br)C(Br)=C(N([H])[H])C(Br)=C%12Br)C%11=C(C)C(Br)=C(C)[NH+]%10%11.CN(C)C.CN(C)C.CN(C)C.CCCCCCCCCCCCCCCC.CCCCCCCCCCCCCCCC.CCCCCCCCCCCCCCCC.[Au].[Br].[Br],539,557,DMSO,,0.02,,0.76,DMSO,,,,,,,10.1142/S108842461650070X
727,2_449,MA-BOP,FALSE,CC2=CC(C)=[N](C2=C3C4=CC=C(N(C6=CC=C(/C=C/C(OC)=O)C=C6)C5=CC=C(/C=C/C(OC)=O)C=C5)C=C4)[B](F)(F)N1C3=C(C)C=C1C,502,513625,dichloromethane,61800,0.0569,,0.2012,DPBF,,,,,,,10.1039/c9nj04166d
728,2_450,BDP-AN-1,FALSE,CC5=C2N(C(C)=C5)[B](F)(F)[N]1=C(C)C=C(C)C1=C2[C@@]3=[C@](C=CC=C6)[C@]6=[C@](C7=CC=CC=C7)[C@]4=[C@@]3C=CC=C4,508,521,toluene,90000,0.81,,0.1,toluene,,,,,,,10.1021/acs.orglett.7b02047
729,2_450,BDP-AN-1,FALSE,CC5=C2N(C(C)=C5)[B](F)(F)[N]1=C(C)C=C(C)C1=C2[C@@]3=[C@](C=CC=C6)[C@]6=[C@](C7=CC=CC=C7)[C@]4=[C@@]3C=CC=C4,506,595,dichloromethane,86000,0.02,,0.95,dichloromethane,,,,,,,10.1021/acs.orglett.7b02047
730,2_450,BDP-AN-1,FALSE,CC5=C2N(C(C)=C5)[B](F)(F)[N]1=C(C)C=C(C)C1=C2[C@@]3=[C@](C=CC=C6)[C@]6=[C@](C7=CC=CC=C7)[C@]4=[C@@]3C=CC=C4,503,641,acetonitrile,80000,0.007,,0.84,acetonitrile,,,,,,,10.1021/acs.orglett.7b02047
731,2_451,BDP-AN-2,FALSE,CC5=C2N(C(C)=C5)[B](F)(F)[N]1=C(C)C=C(C)C1=C2[C@@]3=[C@](C=CC=C6)[C@]6=C[C@]4=[C@@]3C=CC=C4,508,521,toluene,99000,0.84,,0.04,toluene,,,,,,,10.1021/acs.orglett.7b02047
732,2_451,BDP-AN-2,FALSE,CC5=C2N(C(C)=C5)[B](F)(F)[N]1=C(C)C=C(C)C1=C2[C@@]3=[C@](C=CC=C6)[C@]6=C[C@]4=[C@@]3C=CC=C4,506,518,dichloromethane,97000,0.14,,0.82,dichloromethane,,,,,,,10.1021/acs.orglett.7b02047
733,2_451,BDP-AN-2,FALSE,CC5=C2N(C(C)=C5)[B](F)(F)[N]1=C(C)C=C(C)C1=C2[C@@]3=[C@](C=CC=C6)[C@]6=C[C@]4=[C@@]3C=CC=C4,502,510,acetonitrile,87000,0.01,,0.86,acetonitrile,,,,,,,10.1021/acs.orglett.7b02047
734,2_452,BDP-AN-3,FALSE,F[B]2(F)[N]1=C(C)C=C(C)C1=C(C4=CC=CC=C4)C3=C(C)C(C5=C(C=CC=C7)C7=C[C@]6=[C@@]5C=CC=C6)=C(C)N23,516,556,toluene,80000,0.39,,0.2,toluene,,,,,,,10.1021/acs.orglett.7b02047
735,2_452,BDP-AN-3,FALSE,F[B]2(F)[N]1=C(C)C=C(C)C1=C(C4=CC=CC=C4)C3=C(C)C(C5=C(C=CC=C7)C7=C[C@]6=[C@@]5C=CC=C6)=C(C)N23,513,584,dichloromethane,78000,0.1,,0.24,dichloromethane,,,,,,,10.1021/acs.orglett.7b02047
736,2_452,BDP-AN-3,FALSE,F[B]2(F)[N]1=C(C)C=C(C)C1=C(C4=CC=CC=C4)C3=C(C)C(C5=C(C=CC=C7)C7=C[C@]6=[C@@]5C=CC=C6)=C(C)N23,510,627,acetonitrile,75000,0.02,,0.11,acetonitrile,,,,,,,10.1021/acs.orglett.7b02047
737,2_453,BDP-AN-4,FALSE,F[B]2(F)[N]1=C(C)C=C(C)C1=C(C4=CC=CC=C4)C3=C(C)C(C5=CC=[C@](C=[C@](C=CC=C7)C7=C6)C6=C5)=C(C)N23,520,568,toluene,87000,0.42,,0.11,toluene,,,,,,,10.1021/acs.orglett.7b02047
738,2_453,BDP-AN-4,FALSE,F[B]2(F)[N]1=C(C)C=C(C)C1=C(C4=CC=CC=C4)C3=C(C)C(C5=CC=[C@](C=[C@](C=CC=C7)C7=C6)C6=C5)=C(C)N23,517,575,dichloromethane,89000,0.2,,0.13,dichloromethane,,,,,,,10.1021/acs.orglett.7b02047
739,2_453,BDP-AN-4,FALSE,F[B]2(F)[N]1=C(C)C=C(C)C1=C(C4=CC=CC=C4)C3=C(C)C(C5=CC=[C@](C=[C@](C=CC=C7)C7=C6)C6=C5)=C(C)N23,513,587,acetonitrile,84000,0.04,,0.05,acetonitrile,,,,,,,10.1021/acs.orglett.7b02047
740,2_454, [(p-cym)Ru(bpy)(py-BODIPY)]2+ (1),TRUE,CC4=C2N(C(C)=C4[H])[B-]([N+]1=C(C)C([H])=C(C)C1=C2C3=CC=[N]([Ru@@]6(C)[N@]5=CC=CC=C5C7=[N@]6C=CC=C7)C=C3)(F)F.C[c@@]8cc[c@](C(C)C)cc8,504,521,CH3CN,62400,0.06,,0.05,air-saturated CH3CN,,,,,,,10.1039/c5dt01612f
741,2_454, [(p-cym)Ru(bpy)(py-BODIPY)]2+ (1),TRUE,CC4=C2N(C(C)=C4[H])[B-]([N+]1=C(C)C([H])=C(C)C1=C2C3=CC=[N]([Ru@@]6(C)[N@]5=CC=CC=C5C7=[N@]6C=CC=C7)C=C3)(F)F.C[c@@]8cc[c@](C(C)C)cc8,507,529,PBS:DMSO(8:1),65800,0.05,,0.05,air-saturated CH3CN,,,,,,,10.1039/c5dt01612f
742,2_455,[(p-cym)Ru(bpy)(py-I-BODIPY)]2+ (2),TRUE,CC4=C2N(C(C)=C4I)[B-]([N+]1=C(C)C(I)=C(C)C1=C2C3=CC=[N]([Ru@@]6(C)[N@]5=CC=CC=C5C7=[N@]6C=CC=C7)C=C3)(F)F.C[c@@]8cc[c@](C(C)C)cc8,542,574,CH3CN,40100,0.04,,0.68,air-saturated CH3CN,,,,,,,10.1039/c5dt01612f
743,2_455,[(p-cym)Ru(bpy)(py-I-BODIPY)]2+ (2),TRUE,CC4=C2N(C(C)=C4I)[B-]([N+]1=C(C)C(I)=C(C)C1=C2C3=CC=[N]([Ru@@]6(C)[N@]5=CC=CC=C5C7=[N@]6C=CC=C7)C=C3)(F)F.C[c@@]8cc[c@](C(C)C)cc8,545,578,PBS:DMSO(8:1),37200,0.03,,0.68,air-saturated CH3CN,,,,,,,10.1039/c5dt01612f
744,2_456,[(p-cym)Ru(2-pydaT)(py-I-BODIPY)]2+ (3),TRUE,C[c@@]1cc[c@](C(C)C)cc1.CC5=C3N(C(C)=C5I)[B-]([N+]2=C(C)C(I)=C(C)C2=C3C4=CC=[N]([Ru@@]7(C)[N@]6=C(N)N=C(N)N=C6C8=[N@]7C=CC=C8)C=C4)(F)F,540,568,CH3CN,39900,0.04,,0.63,air-saturated CH3CN,,,,,,,10.1039/c5dt01612f
745,2_456,[(p-cym)Ru(2-pydaT)(py-I-BODIPY)]2+ (3),TRUE,C[c@@]1cc[c@](C(C)C)cc1.CC5=C3N(C(C)=C5I)[B-]([N+]2=C(C)C(I)=C(C)C2=C3C4=CC=[N]([Ru@@]7(C)[N@]6=C(N)N=C(N)N=C6C8=[N@]7C=CC=C8)C=C4)(F)F,543,573,PBS:DMSO(8:1),36300,0.03,,0.63,air-saturated CH3CN,,,,,,,10.1039/c5dt01612f