,index,name,metal_complex,SMILES,max_absorption_peak,max_emission_peak,solvant_spectrum,molar_extinction_coefficient,quantum_yield_fluorescence,max_phosphorescence_peak,quantum_yield_singlet_oxygen,solvant_quantum_yield,energy_level_exited_triplet_state,energy_level_HUMO,energy_level_LUMO,difference_HOMO_and_LUMO,method_for_HOMO/LUMO,all_absoption_peaks,reference_DOI
291,2_106,BODIPY 38,FALSE,CC2=C(Br)C(C)=[N+](C2=C3C4=CC=C(C(C6=C(C)C(Br)=C(C)N6[B-](F)7F)=C5[N+]7=C(C)C(Br)=C5C)C=C4)[B-](F)(F)N1C3=C(C)C(Br)=C1C,528,,CH2Cl2,,,,0.47,CH2Cl2,,,,,,,10.1016/j.jphotochemrev.2019.04.001
292,2_107,BODIPY 39,FALSE,CC2=C(I)C(C)=[N+](C2=C3C4=CC=C(C(C6=C(C)C(I)=C(C)N6[B-](F)7F)=C5[N+]7=C(C)C(I)=C5C)C=C4)[B-](F)(F)N1C3=C(C)C(I)=C1C,540,,CH2Cl2,,,,0.68,CH2Cl2,,,,,,,10.1016/j.jphotochemrev.2019.04.001
293,2_108,BODIPY41,FALSE,CC2=C(I)C(C)=[N+](C2=C3C(C=C8)=CC=C8C[N]5(C7)[Cu](Cl)(Cl)([N]6=C7C=CC=C6)[N]4=CC=CC=C4C5)[B-](F)(F)N1C3=C(C)C(I)=C1C,535,560,DMF,59000,0.01,,0.53,DMSO,,,,,,,10.1016/j.jphotochemrev.2019.04.001
294,2_109,BODIPY42,FALSE,CC3=C(Br)C(/C=C/C6=CC=[N+](C)C=C6)=[N+](C3=C4C5=CC=CC=C5)[B-](F)(F)N1C4=C(C)C(Br)=C1/C=C/C2=CC=[N+](C)C=C2,648,680,CH3CN,45000,0.095,,0.1,CH3CN,,,,,,,10.1016/j.jphotochemrev.2019.04.001
295,2_110,BODIPY43,FALSE,CC3=C(I)C(/C=C/C6=CC=[N+](C)C=C6)=[N+](C3=C4C5=CC=CC=C5)[B-](F)(F)N1C4=C(C)C(I)=C1/C=C/C2=CC=[N+](C)C=C2,649,686,CH3CN,56000,0.014,,0.22,CH3CN,,,,,,,10.1016/j.jphotochemrev.2019.04.001
296,2_111,BODIPY44,FALSE,BrC3=C6C(C=C(C7=CC=C(Br)S7)S6)=[N+](C3=C4C5=CC=C(C(OC)=O)C=C5)[B-](F)(F)N1C4=CC2=C1C=C(C8=CC=C(Br)S8)S2,698,724,CH2Cl2,230000,0.04,,0.63,CH2Cl2,,,,,,,10.1016/j.jphotochemrev.2019.04.001
297,2_112,BODIPY47,FALSE,CC3=C(Br)C(/C=C/C6=CC=C(OC)C=C6)=[N+](C3=C4C5=CC=C(CN7C(C=CC=C7)=O)C=C5)[B-](F)(F)N1C4=C(C)C(Br)=C1/C=C/C2=CC=C(OC)C=C2,668,697,DMSO,22000,0.14,,0.15,DMSO,,,,,,,10.1016/j.jphotochemrev.2019.04.001
298,2_113,BODIPY48,FALSE,CC3=C(Br)C(/C=C/C6=CC=C(OC)C=C6)=[N+](C3=C4C5=CC=C(CN7C(C=C8)OOC8C7=O)C=C5)[B-](F)(F)N1C4=C(C)C(Br)=C1/C=C/C2=CC=C(OC)C=C2,667,700,DMSO,74000,0.1,,0.2,DMSO,,,,,,,10.1016/j.jphotochemrev.2019.04.001
299,2_114,BODIPY49,FALSE,CC2=C([H])C(C)=[N+](C2=C3C4=CC=[N]([Ru@@]6(C)[N@@](C=CC=C7)=C7C5=CC=CC=[N@]56)C=C4)[B-](F)(F)N1C3=C(C)C([H])=C1C.CC8=CC=C(C(C)C)C=C8,504,521,CH3CN,62000,0.06,,0.05,CH3CN,,,,,,,10.1016/j.jphotochemrev.2019.04.001
300,2_115,BODIPY50,FALSE,CC2=C(I)C(C)=[N+](C2=C3C4=CC=[N]([Ru@@]6(C)[N@@](C=CC=C7)=C7C5=CC=CC=[N@]56)C=C4)[B-](F)(F)N1C3=C(C)C(I)=C1C.CC8=CC=C(C(C)C)C=C8,542,574,CH3CN,40000,0.04,,0.68,CH3CN,,,,,,,10.1016/j.jphotochemrev.2019.04.001
301,2_116,BODIPY51,FALSE,CC2=C(I)C(C)=[N+](C2=C3C4=CC=[N]([Ru@@]6(C)[N@@](C(N)=NC(N)=N7)=C7C5=CC=CC=[N@]56)C=C4)[B-](F)(F)N1C3=C(C)C(I)=C1C.CC8=CC=C(C(C)C)C=C8,540,569,CH3CN,39000,0.04,,0.63,CH3CN,,,,,,,10.1016/j.jphotochemrev.2019.04.001
302,2_117,BODIPY52,FALSE,CC2=C(I)C(C)=[N+](C2=C3C4=CC=[N+](C)C=C4)[B-](F)(F)N1C3=C(C)C(I)=C1C,546,590,Acetone,110000,0.09,,0.15,CH3CH(OH)CH3,,,,,,,10.1016/j.jphotochemrev.2019.04.001
303,2_118,BODIPY53,FALSE,CC2=C(I)C(C)=[N+](C2=C3C4=CC=[N+](CC5=CC=CC=C5)C=C4)[B-](F)(F)N1C3=C(C)C(I)=C1C,548,595,Acetone,90000,0.18,,0.15,CH3CH(OH)CH3,,,,,,,10.1016/j.jphotochemrev.2019.04.001
304,2_119,BODIPY64,FALSE,CC2=C(Br)C(C)=[N+](C2=C3COC(C)=O)[B-](F)(F)N1C3=C(C)C(Br)=C1C,543,562,CH3CN,81000,0.14,,0.84,CH3CN,,,,,,,10.1016/j.jphotochemrev.2019.04.001
305,2_120,BODIPY65,FALSE,CC2=C(I)C(C)=[N+](C2=C3COC(C)=O)[B-](F)(F)N1C3=C(C)C(I)=C1C,550,572,CH3CN,96000,0.02,,0.98,CH3CN,,,,,,,10.1016/j.jphotochemrev.2019.04.001
306,2_121,BODIPY73,TRUE,F[B-]([N+]2=CC(C#CC5=C[N]([Ru]%19([N]%20=C(C%22=[N]%21C=CC=C%22)C=CC=C%20)%21%16[N]%17=CC=CC=C%17C%18=CC=CC=[N]%18%19)=C(C7=[N]%16C=CC=C7)C=C5)=CC2=C3C4=CC=CC=C4)(F)N1C3=CC(C#CC6=CC=C(C8=CC=CC=[N]8[Ru]%12([N]%13=C(C%15=[N]%14C=CC=C%15)C=CC=C%13)%149[N]%10=CC=CC=C%10C%11=CC=CC=[N]%11%12)[N]9=C6)=C1,570,,CH3CN,130000,,,0.79,CH3CN,,,,,,,10.1016/j.jphotochemrev.2019.04.001
307,2_122,BODIPY74,TRUE,F[B-]([N+]2=CC(C#CC5=C[N]([Ir]%19([N]%20=C(C%22=[N]%21C=CC=C%22)C=CC=C%20)%21%16[N]%17=CC=CC=C%17C%18=CC=CC=[N]%18%19)=C(C7=[N]%16C=CC=C7)C=C5)=CC2=C3C4=CC=CC=C4)(F)N1C3=CC(C#CC6=CC=C(C8=CC=CC=[N]8[Ir]%12([N]%13=C(C%15=[N]%14C=CC=C%15)C=CC=C%13)%149[N]%10=CC=CC=C%10C%11=CC=CC=[N]%11%12)[N]9=C6)=C1,567,,CH3CN,106000,0.24,,0.75,CH3CN,,,,,,,10.1016/j.jphotochemrev.2019.04.001
308,2_123,BODIPY75,TRUE,[H]C3=C(C)C2=C(C4=C(C)O[Ir]6([N]5=CC=CC=C5C7=C6C=C(F)C=C7F)9(C8=CC(F)=CC(F)=C8C%10=[N]9C=CC=C%10)[O]=C4C)C1=C(C)C([H])=CN1[B-](OCCOCC)(OCCOCC)[N+]2=C3,517,528,CH3CN,45000,0.08,,0.86,CH3CN,,,,,,,10.1016/j.jphotochemrev.2019.04.001
309,2_124,BODIPY76,TRUE,CC2=C(C5=CC=CS5)C=[N+](C2=C3C4=C(C)O[Ir]8([N]7=CC=CC=C7C9=C8C=C(F)C=C9F)%11(C%10=CC(F)=CC(F)=C%10C%12=[N]%11C=CC=C%12)[O]=C4C)[B-](OCCOCC)(OCCOCC)N1C3=C(C)C(C6=CC=CS6)=C1,597,652,CH3CN,34000,0.22,,0.6,CH3CN,,,,,,,10.1016/j.jphotochemrev.2019.04.001
310,2_125,BODIPY77,TRUE,F[B-]([N+]2=C(C)C=C(C)C2=C3C4=CC(N=C(C(C=CC=[N]%14%15)=C%14C7=C6C=CC=[N]7[Ir]9%11(C%10=CC=CC=C%10C%12=[N]%11C=C(F)C=C%12F)%15[N](C=CC=C%13)=C%13C8=C(F)C=C(F)C=C89)C6=N5)=C5C=C4)(F)N1C3=C(C)C=C1C,502,546,CH3CN,26000,0.01,,0.51,CH3CN,,,,,,,10.1016/j.jphotochemrev.2019.04.001
311,2_126,BODIPY79,TRUE,F[B-]([N+]2=C(/C=C/C5=CC=C([NH2][Pt]([NH3])(Cl)[NH3])C=C5)C=C(C)C2=C3C4=CC=C(C(OC)=O)C=C4)(F)N1C3=C(C)C=C1C,568,575,HEPES buffer,137000,0.14,,0.13,HEPES buffer,,,,,,,10.1016/j.jphotochemrev.2019.04.001
312,2_127,BODIPY80,TRUE,F[B-]([N+]2=C(C)C(C#C[Au][P](C6=CC=CC=C6)(C7=CC=CC=C7)C5=CC=CC=C5)=C(C)C2=C3C4=CC=CC=C4)(F)N1C3=C(C)C=C1C,550,583,CH2Cl2,38000,0.05,,0.84,CH2Cl2,,,,,,,10.1016/j.jphotochemrev.2019.04.001
313,2_128,BODIPY81,FALSE,F[B-]([N+]2=CC(C5=CC=C(N)C=C5)=CC2=C3C4=CC=C(OC)C=C4)(F)N1C3=CC(C6=CC=C(N)C=C6)=C1,670,720,DMSO,60000,0.015,,0.38,DMSO,,,,,,,10.1016/j.jphotochemrev.2019.04.001
314,2_129,BODIPY82,FALSE,F[B-]([N+]3=C(C6=CC=C(N)C=C6)C=CC3=C4C5=CC=C(OC)C=C5)(F)N1C4=CC=C1C2=CC=C(N)C=C2,590,670,DMSO,60000,0.2,,0.4,DMSO,,,,,,,10.1016/j.jphotochemrev.2019.04.001
315,2_130,BODIPY83,FALSE,F[B-]([N+]2=CC(C5=CC=C(OC)C=C5)=CC2=C3C4=CC=C(OC)C=C4)(F)N1C3=CC(C6=CC=C(OC)C=C6)=C1,610,680,DMSO,62000,0.02,,0.48,DMSO,,,,,,,10.1016/j.jphotochemrev.2019.04.001
316,2_131,BODIPY84,FALSE,F[B-]([N+]3=C(C6=CC=C(OC)C=C6)C=CC3=C4C5=CC=C(OC)C=C5)(F)N1C4=CC=C1C2=CC=C(OC)C=C2,570,630,DMSO,60000,0.4,,0.53,DMSO,,,,,,,10.1016/j.jphotochemrev.2019.04.001
317,2_132,BODIPY85,FALSE,F[B-]([N+]3=C(C=C(C7=CC=C([H])C=C7)S5)C5=CC3=C4C(F)(F)F)(F)N1C4=CC2=C1C=C(C6=CC=C([H])C=C6)S2,688,700,CH2Cl2,120000,0.22,,0.42,CH2Cl2,,,,,,,10.1016/j.jphotochemrev.2019.04.001
318,2_133,BODIPY86,FALSE,F[B-]([N+]2=C(C)C=C(C)C2=C3C4=CC=C(N(CCO)C)C=C4)(F)N1C3=C(C)C=C1C,490,514,H2O,76000,0.002,,0.041,H2O,,,,,,,10.1016/j.jphotochemrev.2019.04.001
319,2_134,BODIPY90,TRUE,F[B-]2(F)N1C(C(C(C=C%15)=CC=C%15C#CC(C5=CC=C8N5[Zn]76N%11C(C=CC%11=C%12C%13=CC=CC(OCCOCCOCCOC)=C%13)=C(C#CC%14=CC=C(OCCOCCOCCOCC[P](C%17=CC=CC=C%17)(C%18=CC=CC=C%18)C%16=CC=CC=C%16)C=C%14)C(C=C%10)=[N]7C%10=C8C9=CC=CC(OCCOCCOCCOC)=C9)=C4[N]6=C%12C=C4)=C3[N+]2=CC=C3)=CC=C1,449,665,DMSO,21000,0.015,,0.52,CHCl3,,,,,,"449, 505, 659",10.1016/j.jphotochemrev.2019.04.001
320,2_135,BODIPY91,TRUE,OC(C=C%11)=CC=C%11C#CC6=C3C=CC4=C(C%15=CC=CC(OCCOCCOCCOC)=C%15)C5=[N]2C(C=C5)=C(C#CC%10=CC=C(C(C%13=CC=CN%13[B-](F)%14F)=C%12[N+]%14=CC=C%12)C=C%10)C1=CC=C8N1[Zn]([N]7=C6C=CC7=C8C9=CC=CC(OCCOCCOCCOC)=C9)2N34,450,666,DMSO,32000,0.016,,0.59,CHCl3,,,,,,"450, 505, 660",10.1016/j.jphotochemrev.2019.04.001
321,2_136,BODIPY92,FALSE,F[B-]([N+]2=C(C)C(C#CCNC(C6=CC=C(C)N6[B-](F)7F)=C5[N+]7=C(C)C=C5)=C(C)C2=C3C4=C(C)N([B-](F)(F)[N+]%11=C(C)C(C#CC%14=CC=CC=C%14)=C(C)C%11=C%12C%13=C(C)C=C(C)C=C%13C)C%12=C4C)(F)N1C3=C(C)C(C#CCNC(C9=CC=C(C)N9[B-](F)%10F)=C8[N+]%10=C(C)C=C8)=C1C,555,573,DMSO,115000,0.18,,0.53,CHCl3,,,,,,"428, 523, 555",10.1016/j.jphotochemrev.2019.04.001
322,2_137,BODIPY93,FALSE,CC1=C3N([B-](F)(F)[N+]2=C(C)C=C(C)C2=C3C4=CC=C([N+](C)(C)C)C=C4)C(C)=C1,502,513,DMF,85000,0.29,,0.07,DMF,,,,,,,10.1016/j.jphotochemrev.2019.04.001
323,2_138,BODIPY94,FALSE,[H]C1=C3N([B-](F)(F)[N+]2=C([H])C=C([H])C2=C3C4=CC=C(OCCC[N+](C)(C)C)C=C4)C([H])=C1,498,512,DMF,95000,0.03,,0.03,DMF,,,,,,,10.1016/j.jphotochemrev.2019.04.001
324,2_139,bromo-substituted BODIPY dye (I),FALSE,F[B-]2(F)N1C6=C(SC(C8=CC=C(Br)S8)=C6)C=C1C(C4=CC=C(C(OC)=O)C=C4)=C3[N+]2=C(C=C(C7=CC=C(Br)S7)S5)C5=C3Br,688,707,THF,194000,0.03,,0.63,DCM,,,,,,,10.1039/c3cc40746b
325,2_139,bromo-substituted BODIPY dye (I),FALSE,F[B-]2(F)N1C6=C(SC(C8=CC=C(Br)S8)=C6)C=C1C(C4=CC=C(C(OC)=O)C=C4)=C3[N+]2=C(C=C(C7=CC=C(Br)S7)S5)C5=C3Br,698,724,CH2Cl2,230000,0.04,,0.63,DCM,,,,,,,10.1039/c3cc40746b
326,2_140,MBDP,FALSE,F[B-]2(F)N1C(/C=C/C6=CC=C(OCCOCCOCCOC)C=C6)=C(I)C(C)=C1C(C4=CC=C(CN5CCOCC5)C=C4)=C3[N+]2=C(/C=C/C7=CC=C(OCCOCCOCCOC)C=C7)C(I)=C3C,660,694,DCM,83226,0.11,,0.57,DCM,,,,,,,10.1016/j.dyepig.2017.07.048
327,2_141,helical-BDP,FALSE,F[B-]2(F)[N]1=C7C(C(C=CC=C8)=C8C=C7)=C(C)C1=C(C4=CC=CC=C4)C3=C(C)C5=C(C=CC6=C5C=CC=C6)N23,630,649,DCM,176000,0.21,,0.36,DCM,,,,,,,10.1002/anie.202005269
328,2_142,BOD-TPP,FALSE,F[B]([N]2=C(C)C([H])=C(C)C2=C3CCCC[P+](C5=CC=CC=C5)(C6=CC=CC=C6)C4=CC=CC=C4)(F)N1C3=C(C)C([H])=C1C.[Br-],499,,EtOH,,1,,0.012,EtOH,,,,,,,10.1016/j.molstruc.2021.131284 
329,2_143,TPP-I ,FALSE,F[B]([N]2=C(C)C(I)=C(C)C2=C3CCCC[P+](C5=CC=CC=C5)(C6=CC=CC=C6)C4=CC=CC=C4)(F)N1C3=C(C)C([H])=C1C.[Br-],510,,EtOH,,0.17,,0.36,EtOH,,,,,,,10.1016/j.molstruc.2021.131284 
330,2_144,TPP-I2,FALSE,F[B]([N]2=C(C)C(I)=C(C)C2=C3CCCC[P+](C5=CC=CC=C5)(C6=CC=CC=C6)C4=CC=CC=C4)(F)N1C3=C(C)C(I)=C1C.[Br-],528,,EtOH,,0.08,,0.87,EtOH,,,,,,,10.1016/j.molstruc.2021.131284 
331,2_145,sulfur-BODIPY 2b-o,FALSE,S=C2C5=C(C=CC=C5)C1=NC3=[N+](C(C=CC=C4)=C4C=C3)[B](F)(F)N12,428,503,DCM,10800,0.04,,0.26,CH3OH,,-5.98,-2.82,-3.16,theoretical,"428, 450",10.1016/j.dyepig.2022.110167 
332,2_146,sulfur-BODIPY 2a-s,FALSE,O=C2C5=C(C=CC=C5)C1=NC3=[N+](C(C=CC=C4)=C4C=C3)[B](C6=CC=CC=C6)(C7=CC=CC=C7)N12,427,,DCM,25894,,,0.24,CH3OH,,-5.97,-3.31,-2.66,theoretical,"427, 449",10.1016/j.dyepig.2022.110167 
333,2_147,sulfur-BODIPY 1b-s,FALSE,S=C2C4=C(C=CC=C4)C1=NC3=[N+](C=CC=C3)[B](C5=CC=CC=C5)(C6=CC=CC=C6)N12,436,,DCM,20100,,,0.4,CH3OH,,,,,,"436, 460 ",10.1016/j.dyepig.2022.110167 
334,2_148,sulfur-BODIPY 2b-s,FALSE,S=C2C5=C(C=CC=C5)C1=NC3=[N+](C(C=CC=C4)=C4C=C3)[B](C6=CC=CC=C6)(C7=CC=CC=C7)N12,463,,DCM,20700,,,0.42,CH3OH,,-5.62,-3.08,-2.54,theoretical,"463, 491",10.1016/j.dyepig.2022.110167 
335,2_149,BODIPY Dimers 1a,FALSE,F[B]7(F)[N]1=C(C)C(CC)=C(C)C1=CC(N67)=C(C)C2=C6C=CC3=C2C(C)=C5=[N]3[B](F)(F)=N4=C(C)C(CC)=C(C)C4=C5,654,677,toluene,129000,0.81,,,,,-5.92,-3.66,-2.26,spectrometry ,,10.1021/acs.orglett.5b02717
336,2_150,BODIPY Dimers 1b,FALSE,F[B]7(F)[N]1=C(C(C)(C)C)C=CC1=CC(N67)=C(C)C2=C6C=CC3=C2C(C)=C5N3[B](F)(F)[N]4=C(C(C)(C)C)C=CC4=C5,657,676,toluene,107000,0.7,,,,,-6.08,-3.83,-2.25,spectrometry ,,10.1021/acs.orglett.5b02717
337,2_149,BODIPY Dimers 2a,FALSE,F[B]7(F)[N]1=C(C)C(CC)=C(C)C1=CC(N67)=C(C)C2=C6C=CC3=C2C(C)=C5=[N]3[B](F)(F)=N4=C(C)C(CC)=C(C)C4=C5,670,696,toluene,52500,0.72,,,,,-5.59,-3.37,-2.22,spectrometry ,,10.1021/acs.orglett.5b02717
338,2_152,BODIPY Dimers 2b,FALSE,F[B]7(F)[N]1=C(C(C)(C)C)C=CC1=CC(N67)=C(C)C2=C6CCC3=C2C(C)=C5N3[B](F)(F)[N]4=C(C(C)(C)C)C=CC4=C5,654,670,toluene,57600,0.41,,,,,-5.72,-3.51,-2.21,spectrometry ,,10.1021/acs.orglett.5b02717
339,2_153,H2-BDP-OA,FALSE,CC(C=C3C)=C2N3[B](F)(F)[N]1=C(C)C=C(C)C1=C2COC(C)=O,517,,MeOH,71000,0.734,,0,MeOH,,,,,,,10.1039/d1sc00732g
340,2_154,Cl2-BDP-OAc,FALSE,CC(C(Cl)=C3C)=C2N3[B](F)(F)[N]1=C(C)C(Cl)=C(C)C1=C2COC(C)=O,544,,MeOH,48000,0.675,,0.22,MeOH,,,,,,,10.1039/d1sc00732g
341,2_155,Br2-BDP-OAc,FALSE,CC(C(Br)=C3C)=C2N3[B](F)(F)[N]1=C(C)C(Br)=C(C)C1=C2COC(C)=O,545,,MeOH,56300,0.155,,0.54,MeOH,,,,,,,10.1039/d1sc00732g
342,2_156,I2-BDP-OAc,FALSE,CC(C(I)=C3C)=C2N3[B](F)(F)[N]1=C(C)C(I)=C(C)C1=C2COC(C)=O,553,,MeOH,49000,0.018,,0.84,MeOH,,,,,,,10.1039/d1sc00732g
343,2_157,I2-BDP-tol ,FALSE,CC(C(I)=C4C)=C2N4[B](F)(F)[N]1=C(C)C(I)=C(C)C1=C2C3=CC=C(C)C=C3,548,,cyclohexane,43000,0.012,,0.83,MeCN,,,,,,,10.1039/d1sc00732g
344,2_158,I3-BDP-tol ,FALSE,CC(C(I)=C4C)=C2N4[B](F)(F)[N]1=C(I)C(I)=C(C)C1=C2C3=CC=C(C)C=C3,563,,cyclohexane,48000,0.06,,0.86,MeCN,,,,,,,10.1039/d1sc00732g
345,2_159,I4-BDP-tol ,FALSE,CC(C(I)=C4I)=C2N4[B](F)(F)[N]1=C(I)C(I)=C(C)C1=C2C3=CC=C(C)C=C3,581,,cyclohexane,116000,0.099,,0.87,MeCN,,,,,,,10.1039/d1sc00732g
346,2_160,Me4-BDP-Ph,FALSE,CC(C=C4C)=C2N4[B](F)(F)[N]1=C(C)C=C(C)C1=C2C3=CC=CC=C3,498,,MeOH,44000,0.65,,0.01,DCM,,,,,,,10.1039/d1sc00732g
347,2_161,Me4-BDP-Ph-I,FALSE,CC(C=C4C)=C2N4[B](F)(F)[N]1=C(C)C=C(C)C1=C2C3=CC=C(I)C=C3,499,,MeOH,81000,0.49,,0.01,DCM,,,,,,,10.1039/d1sc00732g
348,2_162,BDP-Ph(OMe)3,FALSE,CC(C=C4C)=C2N4[B](F)(F)[N]1=C(C)C=C(C)C1=C2C3=C(OC)C=C(OC)C(OC)=C3,503,,THF,,0.005,,0.36,MeCN,,,,,,,10.1039/d1sc00732g
349,2_163,BDP-ANPh,FALSE,CC(C=C5C)=C2N5[B](F)(F)[N]1=C(C)C=C(C)C1=C2C3=C(C=CC=C6)C6=C(C7=CC=CC=C7)C4=C3C=CC=C4,506,,DCM,86000,0.01,,0.95,DCM,,,,,,,10.1039/d1sc00732g
350,2_163,BDP-ANPh,FALSE,CC(C=C5C)=C2N5[B](F)(F)[N]1=C(C)C=C(C)C1=C2C3=C(C=CC=C6)C6=C(C7=CC=CC=C7)C4=C3C=CC=C4,506,,DCM,86000,0.81,,0.1,toluene,,,,,,,10.1039/d1sc00732g
351,2_164,BDP-PTZ,FALSE,CC(C=C4C)=C2N4[B](F)(F)[N]1=C(C)C=C(C)C1=C2C3=CC=C(N(CCCC)C(C=CC=C6)C6S5)C5=C3,502,,DCM,49000,0.027,,0.67,toluene,,,,,,,10.1039/d1sc00732g
352,2_164,BDP-Ph-PTZ,FALSE,CC(C=C4C)=C2N4[B](F)(F)[N]1=C(C)C=C(C)C1=C2C3=CC=C(N(CCCC)C(C=CC=C6)C6S5)C5=C3,502,,DCM,48700,0.072,,0.25,toluene,,,,,,,10.1039/d1sc00732g
353,2_164,BDP-Pyr,FALSE,CC(C=C4C)=C2N4[B](F)(F)[N]1=C(C)C=C(C)C1=C2C3=CC=C(N(CCCC)C(C=CC=C6)C6S5)C5=C3,503,,EtOH,,0.003,,0.75,EtOH,,,,,,,10.1039/d1sc00732g
354,2_167,R2-BDP-Pyr,FALSE,F[B]([N]2=C(C)C=CC2=C3C4=C(C=CC6=C5C(C=C7)=CC=C6)C5=C7C=C4)(F)N1C3=CC=C1C,512,,EtOH,,0.017,,0.25,EtOH,,,,,,,10.1039/d1sc00732g
355,2_168,R4-BDP-Pyr,FALSE,F[B]([N]2=C(C)C=C(C)C2=C3C4=C(C=CC6=C5C(C=C7)=CC=C6)C5=C7C=C4)(F)N1C3=C(C)C=C1C,502,,EtOH,,0.651,,0.34,EtOH,,,,,,,10.1039/d1sc00732g
356,2_169,R6-BDP-Pyr,FALSE,F[B]([N]2=C(C)C(CC)=C(C)C2=C3C4=C(C=CC6=C5C(C=C7)=CC=C6)C5=C7C=C4)(F)N1C3=C(C)C(CC)=C1C,534,,EtOH,,0.695,,0.04,EtOH,,,,,,,10.1039/d1sc00732g
357,2_170,BDP-Mon,FALSE,F[B]([N]2=C(C)C(CC)=C(C)C2=C3)(F)N1C3=C(C)C(C)=C1C,534,,toluene,82000,1,,0.1,toluene,,,,,,,10.1039/d1sc00732g
358,2_171,BDP-3-BDP,FALSE,F[B]([N]2=C(C(C(CC)=C6C)=[N](C6=C5)[B](F)(F)N4C5=C(C)C(C)=C4C)C(CC)=C(C)C2=C3)(F)N1C3=C(C)C(C)=C1C,492,,toluene,64400,0.71,,0.4,toluene,,,,,,,10.1039/d1sc00732g
359,2_171,BDP-3-BDP,FALSE,F[B]([N]2=C(C(C(CC)=C6C)=[N](C6=C5)[B](F)(F)N4C5=C(C)C(C)=C4C)C(CC)=C(C)C2=C3)(F)N1C3=C(C)C(C)=C1C,565,,MeCN,73600,,,0,MeCN,,,,,,,10.1039/d1sc00732g
360,2_172,BDP-2-BDP,FALSE,F[B]([N]2=CC(C(C5=C(C)C=C(C)N5[B](F)6F)=C4[N]6=C(C)C=C4C)=C(C)C2=C3)(F)N1C3=C(C)C=C1C,515,,CHCl3,,0.03,,0.46,CHCl3,,,,,,,10.1039/d1sc00732g
361,2_173,BDP-8-BDP,FALSE,F[B]([N]2=CC=C(C)C2=C3C(C5=C(C)C=C(C)N5[B](F)6F)=C4[N]6=C(C)C=C4C)(F)N1C3=C(C)C=C1C,514,,CHCl3,,0.31,,0.51,CHCl3,,,,,,,10.1039/d1sc00732g
362,2_174,BZnPP,TRUE,F[B]2(F)N1C(C(C(C=C%12)=CC=C%12C#C/C(C5=CC=C(/C(C%10=CC=CC(OCCOCCOCCOC)=C%10)=C6/C=CC7=N6)N5)=C4/N=C(\C(C%11=CC=CC(OCCOCCOCCOC)=C%11)=C(C=C9)/N/C9=C7/C#CC8=CC=C(OCCOCCOCCOCC[P](C%14=CC=CC=C%14)(C%15=CC=CC=C%15)C%13=CC=CC=C%13)C=C8)C=C4)=C3[N]2=CC=C3)=CC=C1,449,665,DMSO,208929.6131,0.015,,0.52,deoxygenated CHCl3,,,,,,"449, 505, 659",10.1002/cbic.201500349
363,2_175,BZnPH,TRUE,OC(C=C9)=CC=C9C#C\C(C(C=C5)=N/C5=C3C4=CC=CC(OCCOCCOCCOC)=C4)=C(N6)/C=C/C6=C(C7=CC=CC(OCCOCCOCCOC)=C7)/C2=N/C(C=C2)=C(C#CC8=CC=C(C(C%11=CC=CN%11[B](F)%12F)=C%10[N]%12=CC=C%10)C=C8)\C1=CC=C\3N1,450,666,DMSO,316227.766,0.016,,0.59,deoxygenated CHCl3,,,,,,"450, 505, 660",10.1002/cbic.201500349
364,2_176,BDP635,FALSE,BrC5=CC1=C(S5)C=C3N1[B](F)(F)[N]2=C(C=C(Br)S4)C4=CC2=C3C(F)(F)F,635,,CHCl3,150000,0.05,,0.52,CHCl3,,-5.5,-3.48,-2.02,theoretical,,10.1002/asia.201300855
365,2_177,SBDPiR650,FALSE,F[B]([N]3=C(C=C(OC7=CC=C([PhenyI])C=C7)S5)C5=CC3=C4C(F)(F)F)(F)N1C4=CC2=C1C=C(OC6=CC=C([PhenyI])C=C6)S2,649,,CHCl3,118000,0.86,,0.02,CHCl3,,,,,,,10.1002/asia.201300855
366,2_178,SBDPiR690,FALSE,F[B]([N]3=C(C=C(C7=CC=CC=C7)S5)C5=CC3=C4C(F)(F)F)(F)N1C4=CC2=C1C=C(C6=CC=CC=C6)S2,688,,CHCl3,120000,0.22,,0.42,CHCl3,,,,,,,10.1002/asia.201300855
367,2_179,SBDPiR700,FALSE,F[B]([N]3=C(C=C(SC7=CC=C([H])C=C7)S5)C5=CC3=C4C(F)(F)F)(F)N1C4=CC2=C1C=C(SC6=CC=C([H])C=C6)S2,694,,CHCl3,105000,0.28,,0.05,CHCl3,,,,,,,10.1002/asia.201300855
368,2_180,BAD-13,FALSE,CC1=CC=C3N1[B](C#CC[N+](C)(CCCS(=O)([O-])=O)C)(C#CC[N+](C)(CCCS(=O)([O-])=O)C)[N]2=C(C)C=CC2=C3C4=C(C=CC=C6)C6=C(C)C5=C4C=CC=C5,514,530,EtOH,,0.01,,0.38,EtOH,,,,,,,10.1039/c8pp00402a
369,2_181,BAD-14,FALSE,CC1=CC(C)=C3N1[B](C#CC[N+](C)(CCCS(=O)([O-])=O)C)(C#CC[N+](C)(CCCS(=O)([O-])=O)C)[N]2=C(C)C=C(C)C2=C3C4=C(C=CC=C6)C6=C(C)C5=C4C=CC=C5,505,514,EtOH,,0.01,,0.52,EtOH,,,,,,,10.1039/c8pp00402a
370,2_182,BAD-15,FALSE,CC1=CC=C3N1[B](C#CC[N+](C)(CCCS(=O)([O-])=O)C)(C#CC[N+](C)(CCCS(=O)([O-])=O)C)[N]2=C(C)C=CC2=C3C4=C(C=CC=C6)C6=CC5=C4C=CC=C5,514,523,EtOH,,0.01,,0.64,EtOH,,,,,,,10.1039/c8pp00402a
371,2_183,BAD-16,FALSE,CC1=CC(C)=C3N1[B](C#CC[N+](C)(CCCS(=O)([O-])=O)C)(C#CC[N+](C)(CCCS(=O)([O-])=O)C)[N]2=C(C)C=C(C)C2=C3C4=C(C=CC=C6)C6=CC5=C4C=CC=C5,504,510,EtOH,,0.03,,0.39,EtOH,,,,,,,10.1039/c8pp00402a
372,2_184,BAD-17,FALSE,CC1=CC=C3N1[B](C#CC[N+](C)(CCCS(=O)([O-])=O)C)(C#CC[N+](C)(CCCS(=O)([O-])=O)C)[N]2=C(C)C=CC2=C3C4=C(C=CC=C6)C6=C(C7=CC=CC=C7)C5=C4C=CC=C5,514,525,EtOH,,0.01,,0.48,EtOH,,,,,,,10.1039/c8pp00402a
373,2_185,BAD-18,FALSE,CC1=CC(C)=C3N1[B](C#CC[N+](C)(CCCS(=O)([O-])=O)C)(C#CC[N+](C)(CCCS(=O)([O-])=O)C)[N]2=C(C)C=C(C)C2=C3C4=C(C=CC=C6)C6=C(C7=CC=CC=C7)C5=C4C=CC=C5,504,511,EtOH,,0.01,,0.66,EtOH,,,,,,,10.1039/c8pp00402a
374,2_186,BPyrD-19,FALSE,CC1=CC=C3N1[B](C#CC[N+](C)(CCCS(=O)([O-])=O)C)(C#CC[N+](C)(CCCS(=O)([O-])=O)C)[N]2=C(C)C=CC2=C3C4=C(C=CC6=C5C(C=C7)=CC=C6)C5=C7C=C4,512,524,EtOH,,0.04,,0.03,EtOH,,,,,,,10.1039/c8pp00402a
375,2_187,BODIPY 20,FALSE,CC1=CC(C)=C3N1[B](C#CC[N+](C)(CCCS(=O)([O-])=O)C)(C#CC[N+](C)(CCCS(=O)([O-])=O)C)[N]2=C(C)C=C(C)C2=C3C4=CC=CC=C4,500,508,EtOH,,0.19,,0.02,EtOH,,,,,,,10.1039/c8pp00402a
376,2_188,BODIPY,FALSE,CC3=C(Br)C(/C=C/C6=CC=C(OCC8=CC=CC=C8)C=C6)=[N](C3=C4C5=CC=C(O)C=C5)[B](F)(F)N1C4=C(C)C(Br)=C1/C=C/C2=CC=C(OCC7=CC=CC=C7)C=C2,649,,DMSO,,0.53,,0.32,DMSO,,,,,,,10.1016/j.pdpdt.2019.03.007
377,2_189,ZnTPPcQ,TRUE,C[N+](C=C%13)=CC=C%13OC%11=CC3=C(C=C%11)C2=NC1=C%12C(C=CC=C%12)=C6N1[Zn]45[N]2=C3N=C(C%10=C9C=CC=C%10)N4C9=NC(C8=C7C=CC=C8)=[N]5C7=N6.COC%14=CC=C[N+](C)=C%14.C[N+]%15=CC=C(OC)C=C%15.C[N+]%16=CC=C(OC)C=C%16,680,,DMSO,,0.18,,0.41,DMSO,,,,,,,10.1016/j.pdpdt.2019.03.007
378,2_192,BODIPY PS1,FALSE,CC4=C2N(C(C)=C4)[B](F)(F)[N]1=C(C)C=C(C)C1=C2C3=CC=CC=C3,497,508,CH3CN,,0.52,,0.068,CH3CN,,,,,,,10.1016/j.dyepig.2019.01.019
379,2_192,BODIPY PS1,FALSE,CC4=C2N(C(C)=C4)[B](F)(F)[N]1=C(C)C=C(C)C1=C2C3=CC=CC=C3,498,509,Acetone,,0.46,,0.05,Acetone,,,,,,,10.1016/j.dyepig.2019.01.019
380,2_192,BODIPY PS1,FALSE,CC4=C2N(C(C)=C4)[B](F)(F)[N]1=C(C)C=C(C)C1=C2C3=CC=CC=C3,499,511,Pinacolone,,0.55,,0.11,Pinacolone,,,,,,,10.1016/j.dyepig.2019.01.019
381,2_192,BODIPY PS1,FALSE,CC4=C2N(C(C)=C4)[B](F)(F)[N]1=C(C)C=C(C)C1=C2C3=CC=CC=C3,498,510,EtOAc,,0.58,,0.057,EtOAc,,,,,,,10.1016/j.dyepig.2019.01.019
382,2_192,BODIPY PS1,FALSE,CC4=C2N(C(C)=C4)[B](F)(F)[N]1=C(C)C=C(C)C1=C2C3=CC=CC=C3,500,512,THF,,0.56,,0.033,THF,,,,,,,10.1016/j.dyepig.2019.01.019
383,2_192,BODIPY PS1,FALSE,CC4=C2N(C(C)=C4)[B](F)(F)[N]1=C(C)C=C(C)C1=C2C3=CC=CC=C3,501,511,n-hexane,,0.56,,0.038,n-hexane,,,,,,,10.1016/j.dyepig.2019.01.019
384,2_192,BODIPY PS1,FALSE,CC4=C2N(C(C)=C4)[B](F)(F)[N]1=C(C)C=C(C)C1=C2C3=CC=CC=C3,498,510,MeOH,,0.58,,0.031,MeOH,,,,,,,10.1016/j.dyepig.2019.01.019
385,2_193,BODIPY PS2,FALSE,CC4=C2N(C(C)=C4)[B](F)(F)[N]1=C(C)C=C(C)C1=C2C3=C(OC)C=CC=C3,499,512,CH3CN,,0.57,,0.18,CH3CN,,,,,,,10.1016/j.dyepig.2019.01.019
386,2_193,BODIPY PS2,FALSE,CC4=C2N(C(C)=C4)[B](F)(F)[N]1=C(C)C=C(C)C1=C2C3=C(OC)C=CC=C3,501,513,Acetone,,0.78,,0.17,Acetone,,,,,,,10.1016/j.dyepig.2019.01.019
387,2_193,BODIPY PS2,FALSE,CC4=C2N(C(C)=C4)[B](F)(F)[N]1=C(C)C=C(C)C1=C2C3=C(OC)C=CC=C3,502,514,Pinacolone,,0.74,,0.078,Pinacolone,,,,,,,10.1016/j.dyepig.2019.01.019