,index,name,metal_complex,SMILES,max_absorption_peak,max_emission_peak,solvant_spectrum,molar_extinction_coefficient,quantum_yield_fluorescence,max_phosphorescence_peak,quantum_yield_singlet_oxygen,solvant_quantum_yield,energy_level_exited_triplet_state,energy_level_HUMO,energy_level_LUMO,difference_HOMO_and_LUMO,method_for_HOMO/LUMO,all_absoption_peaks,reference_DOI
1103,2_640,ST-2,FALSE,F[B-]2(F)N1C(C5=CC=C(C=O)S5)=CC=C1C(C4=CC=C(C=O)S4)=C3[N+]2=C(C6=CC=C(C=O)S6)C=C3,651,679,Acetone,57400,0.03,,,,,-5.95,-4.11,-1.84,electrochemistry,,10.1039/d0qm00494d
1104,2_640,ST-2,FALSE,F[B-]2(F)N1C(C5=CC=C(C=O)S5)=CC=C1C(C4=CC=C(C=O)S4)=C3[N+]2=C(C6=CC=C(C=O)S6)C=C3,650,677,Acetonitrile,45900,0.04,,,,,-5.95,-4.11,-1.84,electrochemistry,,10.1039/d0qm00494d
1105,2_640,ST-2,FALSE,F[B-]2(F)N1C(C5=CC=C(C=O)S5)=CC=C1C(C4=CC=C(C=O)S4)=C3[N+]2=C(C6=CC=C(C=O)S6)C=C3,659,687,DMF,35600,0.04,,,,,-5.95,-4.11,-1.84,electrochemistry,,10.1039/d0qm00494d
1106,2_640,ST-2,FALSE,F[B-]2(F)N1C(C5=CC=C(C=O)S5)=CC=C1C(C4=CC=C(C=O)S4)=C3[N+]2=C(C6=CC=C(C=O)S6)C=C3,663,698,DMSO,51900,0.04,,,,,-5.86,-3.68,-2.18,theoretical,,10.1039/d0qm00494d
1107,2_641,ST-3,FALSE,F[B-]2(F)N1C(C6=CC=C(/C=C(C#N)/C7=CC=NC=C7)S6)=CC=C1C(C4=CC=C(/C=C(C5=CC=NC=C5)\C#N)S4)=C3[N+]2=C(C8=CC=C(/C=C(C#N)/C9=CC=NC=C9)S8)C=C3,730,750,DCM,42500,0.02,,,,,-5.75,-4.08,-1.67,electrochemistry,,10.1039/d0qm00494d
1108,2_641,ST-3,FALSE,F[B-]2(F)N1C(C6=CC=C(/C=C(C#N)/C7=CC=NC=C7)S6)=CC=C1C(C4=CC=C(/C=C(C5=CC=NC=C5)\C#N)S4)=C3[N+]2=C(C8=CC=C(/C=C(C#N)/C9=CC=NC=C9)S8)C=C3,731,752,DMF,17200,0.02,,,,,-5.75,-4.08,-1.67,electrochemistry,,10.1039/d0qm00494d
1109,2_641,ST-3,FALSE,F[B-]2(F)N1C(C6=CC=C(/C=C(C#N)/C7=CC=NC=C7)S6)=CC=C1C(C4=CC=C(/C=C(C5=CC=NC=C5)\C#N)S4)=C3[N+]2=C(C8=CC=C(/C=C(C#N)/C9=CC=NC=C9)S8)C=C3,737,764,DMSO,23100,0.03,,,,,-5.67,-3.77,-1.9,theoretical,,10.1039/d0qm00494d
1110,2_642,"[Co(TPA/4-
COOH-TPA)(L1/L2)]X2 1",TRUE,F[B]([N]2=C(C)C([H])=C(C)C2=C3C4=CC=C(C5=C(C)O[Co]6([N@]9%11CC7=CC=CC=[N]67)([N]8=CC=CC=C8C9)([N@]%10=C(C%11)C=C([H])C=C%10)[O]=C5C)C=C4)(F)N1C3=C(C)C([H])=C1C,501,512,DMSO,52000,0.13,,0.12,DMSO,,,,,,,10.1021/acs.inorgchem.2c00150
1111,2_643,"[Co(TPA/4-
COOH-TPA)(L1/L2)]X2 2",TRUE,F[B]([N]2=C(C)C([H])=C(C)C2=C3C4=CC=C(C5=C(C)O[Co]6([N@]9%11CC7=CC=CC=[N]67)([N]8=CC=CC=C8C9)([N@]%10=C(C%11)C=C(C(O)=O)C=C%10)[O]=C5C)C=C4)(F)N1C3=C(C)C([H])=C1C,501,514,DMSO,58000,0.14,,0.14,DMSO,,,,,,,10.1021/acs.inorgchem.2c00150
1112,2_644,"[Co(TPA/4-
COOH-TPA)(L1/L2)]X2 3",TRUE,F[B]([N]2=C(C)C(I)=C(C)C2=C3C4=CC=C(C5=C(C)O[Co]6([N@]9%11CC7=CC=CC=[N]67)([N]8=CC=CC=C8C9)([N@]%10=C(C%11)C=C([H])C=C%10)[O]=C5C)C=C4)(F)N1C3=C(C)C(I)=C1C,536,554,DMSO,18000,,,0.78,DMSO,,,,,,,10.1021/acs.inorgchem.2c00150
1113,2_645,"[Co(TPA/4-
COOH-TPA)(L1/L2)]X2 4",TRUE,F[B]([N]2=C(C)C(I)=C(C)C2=C3C4=CC=C(C5=C(C)O[Co]6([N@]9%11CC7=CC=CC=[N]67)([N]8=CC=CC=C8C9)([N@]%10=C(C%11)C=C(C(O)=O)C=C%10)[O]=C5C)C=C4)(F)N1C3=C(C)C(I)=C1C,538,552,DMSO,12000,,,0.79,DMSO,,,,,,,10.1021/acs.inorgchem.2c00150
1114,2_646,B1,FALSE,F[B-]2(F)N1C(C)=CC(C)=C1C(C4=C(F)C(F)=C(F)C(F)=C4F)=C3[N+]2=C(C)C=C3C,512,523,ACN,85000,0.98,,0.02,ACN,,,,,,,10.1021/acsabm.9b01035
1115,2_647,B2,FALSE,F[B-]2(F)N1C(C)=C(Br)C(C)=C1C(C4=C(F)C(F)=C(F)C(F)=C4F)=C3[N+]2=C(C)C(Br)=C3C,543,561,ACN,82000,0.16,,0.73,ACN,,,,,,,10.1021/acsabm.9b01035
1116,2_648,"2,6-Diiodo-aza-Bodipy (B-1) ",FALSE,IC3=C(C5=CC=CC=C5)C2=NC1=C(C6=CC=CC=C6)C(I)=C(C9=CC=C(OCC%10=CN(CCOC%11=CC=CC=C%11)N=N%10)C=C9)N1[B](F)(F)[N]2=C3C4=CC=C(OCC7=CN(CCOC8=CC=CC=C8)N=N7)C=C4,683,714,toluene,73000,0.0021,,0.68,aerated CH3CN,,,,,,,10.1039/c4ra03631
1117,2_649,"Bodipy-2,6-diiodo-aza-Bodipy triad (B-2)",FALSE,IC3=C(C5=CC=CC=C5)C2=NC1=C(C6=CC=CC=C6)C(I)=C(C9=CC=C(OCC%10=CN(CCOC%11=CC=C(C%16=C%15[N]([B](F)(F)N%17C%16=C(C)C=C%17C)=C(C)C=C%15C)C=C%11)N=N%10)C=C9)N1[B](F)(F)[N]2=C3C4=CC=C(OCC7=CN(CCOC8=CC=C(C%13=C%12[N]([B](F)(F)N%14C%13=C(C)C=C%14C)=C(C)C=C%12C)C=C8)N=N7)C=C4,504,,toluene,165000,0.0015,,0.69,aerated CH3CN,,,,,,,10.1039/c4ra03631
1118,2_650,Diiodo-Bodipy B-4,FALSE,CC1=C(I)C(C)=[N]4C1=C(C3=C(C)C(I)=C(C)N3[B](F)4F)C2=CC=CC=C2,537,556,toluene,87000,0.036,,0.87,aerated CH3CN,,,,,,,10.1039/c4ra03631
1119,2_651,Ru-1 (Ru(bpy)3Cl2,TRUE,[N]13=C(C2=CC=CC=[N]2[Ru]5([N]7=C9C=CC=C7)([N]8=CC=CC=C89)3[N]4=CC=CC=C4C6=[N]5C=CC=C6)C=CC=C1,451,607,acetonitrile,16700,0.061,,0.57,aerated CH3CN,,,,,,,10.1039/c4ra03631
1120,2_652,B,FALSE,CC1=CC(C)=[N]4C1=C(C3=C(C)C=C(C)N3[B](F)4F)C2=CC=NC=C2,503,,THF,52300,,,,,,-5.51,-2.53,-2.98,electrochemistry,,10.3390/catal10050535
1121,2_653,B-Ph,FALSE,CC1=CC(/C=C/C6=CC=C(OCCCCCCCCCCCC)C=C6)=[N]4C1=C(C3=C(C)C=C(/C=C/C5=CC=C(OCCCCCCCCCCCC)C=C5)N3[B](F)4F)C2=CC=NC=C2,650,,THF,141000,,,,,,-4.69,-2.55,-2.14,electrochemistry,,10.3390/catal10050535
1122,2_654,B-Car,FALSE,CC1=CC(/C=C/C9=CC(C(C=CC=C%12)=C%12N%10C%11=CC=C(OCCCCCCCCCCCC)C=C%11)=C%10C=C9)=[N]4C1=C(C3=C(C)C=C(/C=C/C5=CC(C(C=CC=C8)=C8N6C7=CC=C(OCCCCCCCCCCCC)C=C7)=C6C=C5)N3[B](F)4F)C2=CC=NC=C2,676,,THF,36000,,,,,,-4.51,-2.43,-2.08,electrochemistry,,10.3390/catal10050535
1123,2_655,B-Pheno,FALSE,CC1=CC(/C=C/C9=CC=C%11C(SC%10=CC=CC=C%10N%11C%12=CC=C(OCCCCCCCCCCCC)C=C%12)=C9)=[N]4C1=C(C3=C(C)C=C(/C=C/C5=CC=C7C(SC6=CC=CC=C6N7C8=CC=C(OCCCCCCCCCCCC)C=C8)=C5)N3[B](F)4F)C2=CC=NC=C2,699,,THF,21000,,,,,,-4.47,-2.49,-1.98,electrochemistry,,10.3390/catal10050535
1124,2_656,C-1,FALSE,CC(C=C(/C=C/C6=CC=CC=C6)N4[B](F)5F)=C4C(C2=CC=C(C3=CC=C(C(C%11C%20=C%10)N(C)CC9%10=C(C%19=C%20%21)C8=C%12C%13=C(CC%14=CC%15=CC%16=CC%17=CC%11=C%18C%21=C%23C%19=C%12C%22=C%13C%14=C%15C(C%22=C%23%24)=C%16C%24=C%17%18)C=C8C9)C=C3)C=C2)=C1[N]5=C(/C=C/C7=CC=CC=C7)C=C1C,630,643,toluene,64000,0.01,,0.82,CH2Cl2,,,,,,630,10.1002/chem.201302492
1125,2_657,C-2,FALSE,CC(C=C(C)N3[B](F)4F)=C3C(C2=CC=C(C%11=CC=C(C(C%15C%24=C%14)N(C)CC%13%14=C(C%23=C%24%25)C%12=C%16C%17=C(CC%18=CC%19=CC%20=CC%21=CC%15=C%22C%25=C%27C%23=C%16C%26=C%17C%18=C%19C(C%26=C%27%28)=C%20C%28=C%21%22)C=C%12C%13)C=C%11)C=C2)=C1[N]4=C(C)C(C5=CC=C(C7=C6C(C)=CC(/C=C/C%10=CC=CC=C%10)=[N]6[B](F)(F)N8C7=C(C)C=C8/C=C/C9=CC=CC=C9)C=C5)=C1C,629,640,toluene,83000,0.04,,0.92,CH2Cl2,,,,,,"517, 579, 629",10.1002/chem.201302492
1126,2_658,C-3,FALSE,CCC[CH2].CC1=C(C5=CC=C(C(C9C%18=C8)N(C)CC78=C(C%17=C%18%19)C6=C%10C%11=C(CC%12=CC%13=CC%14=CC%15=CC9=C%16C%19=C%21C%17=C%10C%20=C%11C%12=C%13C(C%20=C%21%22)=C%14C%22=C%15%16)C=C6C7)C=C5)C(C)=[N]4C1=C(C3=C(C)C=C(C)N3[B](F)4F)C2=CC=C(OC)C=C2,517,535,toluene,76000,0.004,,0.81,methanol,,,,,,517,10.1002/chem.201302492
1127,2_659,C-4,FALSE,CC(C(C9=CC=C(C(C%13C%22=C%12)N(C)CC%11%12=C(C%21=C%22%23)C%10=C%14C%15=C(CC%16=CC%17=CC%18=CC%19=CC%13=C%20C%23=C%25C%21=C%14C%24=C%15C%16=C%17C(C%24=C%25%26)=C%18C%26=C%19%20)C=C%10C%11)C=C9)=C(C)N3[B](F)4F)=C3C(C2=CC=C(OC)C=C2)=C1[N]4=C(C)C(C5=CC=C(C7=C6C(C)=CC(C)=[N]6[B](F)(F)N8C7=C(C)C=C8C)C=C5)=C1C.CCC[CH2],504,558,toluene,117000,0.004,,0.87,methanol,,,,,,"504, 532",10.1002/chem.201302492
1128,2_660,C-5,FALSE,CC(C(C%15=CC=C(C(C%19C%28=C%18)N(C)CC%17%18=C(C%27=C%28%29)C%16=C%20C%21=C(CC%22=CC%23=CC%24=CC%25=CC%19=C%26C%29=C%31C%27=C%20C%30=C%21C%22=C%23C(C%30=C%31%32)=C%24C%32=C%25%26)C=C%16C%17)C=C%15)=C(C)N3[B](F)4F)=C3C(C2=CC=C(OC)C=C2)=C1[N]4=C(C)C(C5=CC=C(C7=C6C(C)=CC(C)=[N]6[B](F)(F)N8C7=C(C)C(C9=CC=C(C(C%11=C(C)C=C(/C=C/C%13=CC=CC=C%13)N%11[B](F)%12F)=C%10[N]%12=C(/C=C/C%14=CC=CC=C%14)C=C%10C)C=C9)=C8C)C=C5)=C1C.CCC[CH2],350,641,toluene,125000,0.14,,0.88,CH2Cl2,,,,,,"336, 350, 523, 578, 629",10.1002/chem.201302492
1129,2_661,C-6,FALSE,CC(C(C%16=CC=C(C(C%20C%29=C%19)N(C)CC%18%19=C(C%28=C%29%30)C%17=C%21C%22=C(CC%23=CC%24=CC%25=CC%26=CC%20=C%27C%30=C%32C%28=C%21C%31=C%22C%23=C%24C(C%31=C%32%33)=C%25C%33=C%26%27)C=C%17C%18)C=C%16)=C(C)N3[B](F)4F)=C3C(C2=CC=C(OCCCC)C=C2)=C1[N]4=C(C)C(C5=CC=C(C7=C6C(C)=C(C#CC%15=CC=CC=C%15)C(C)=[N]6[B](F)(F)N8C7=C(C)C(C9=CC=C(C(C%11=C(C)C=C(/C=C/C%13=CC=CC=C%13)N%11[B](F)%12F)=C%10[N]%12=C(/C=C/C%14=CC=CC=C%14)C=C%10C)C=C9)=C8C)C=C5)=C1C,535,640,toluene,68000,0.12,,0.89,CH2Cl2,,,,,,"350, 535, 628",10.1002/chem.201302492
1130,2_662,B-1,FALSE,CC(C(I)=C(C)N3[B](F)4F)=C3C(C2=CC=CC=C2)=C1[N]4=C(C)C(I)=C1C,529,548,CH3CN ,85000,0.027,,0.0079,Methanol,,,,,,,10.1021/jo400769u
1131,2_663,B-2,FALSE,CC1=C(I)C(C)=[N]4C1=C(C3=C(C)C=C(C)N3[B](F)4F)C2=CC=CC=C2,511,535,CH3CN ,89000,0.036,,0.0079,Methanol,,,,,,,10.1021/jo400769u
1132,2_664,B-3,FALSE,CC(C(I)=C(C)N3[B](F)4F)=C3C(C2=CC=CC=C2)=C1[N]4=C(C)C(C#CC5=CC=CC=C5)=C1C,547,585,CH3CN ,80000,0.146,,0.0086,Methanol,,,,,,,10.1021/jo400769u
1133,2_665,B-4,FALSE,CC(C(I)=C(/C=C/C5=CC=CC=C5)N3[B](F)4F)=C3C(C2=CC=CC=C2)=C1[N]4=C(/C=C/C6=CC=CC=C6)C(I)=C1C,630,654,CH3CN ,77000,0.051,,0.0069,Methanol,,,,,,,10.1021/jo400769u
1134,2_666,TPP,FALSE,C1(/C(C3=CC=C(/C(C5=CC=CC=C5)=C4/C=CC6=N4)N3)=C2/N=C(/C(C8=CC=CC=C8)=C9/C=C\C(N9)=C6/C7=CC=CC=C7)C=C2)=CC=CC=C1,411,655,CH3CN ,308000,0.1,,0.0062,Methanol,,,,,,,10.1021/jo400769u
1135,2_667,Ru-1,TRUE,[N]13=C(C2=CC=CC=[N]2[Ru]5([N]8=C%10C=CC=C78)([N]9=CC=CC=C9%10)3[N]4=C7C=CC=C4C6=[N]5C=CC=C6)C=CC=C1,451,607,CH3CN ,16700,0.061,,0.0057,Methanol,,,,,,,10.1021/jo400769u
1136,2_668,Ir-1,TRUE,[N@]13=C(C2=CC=CC=[N@]2[Ir]5([N@]7=C9C=CC=C7)(C8=CC=CC=C89)3[C@@]4=CC=CC=C4C6=CC=CC=[N]56)C=CC=C1,255,590,CH3CN ,49900,0.045,,0.92,"CH2Cl2/CH3OH (9:1, v/v) ",,,,,,,10.1021/ic302210b
1137,2_669,Ir-2,TRUE,F[B]([N]2=C(C)C=C(C)C2=C3C5=CC=C(C=C5)C#CC4=C[N@@]7=C(C6=CC=CC=[N@]6[Ir]9([N@]%11=C%13C=CC=C%11)(C%12=CC=CC=C%12%13)7[C@@]8=CC=CC=C8C%10=[N]9C=CC=C%10)C=C4)(F)N1C3=C(C)C=C1C,499,514,CH3CN ,71400,0.018,,0.52,"CH2Cl2/CH3OH (9:1, v/v) ",,,,,,,10.1021/ic302210b
1138,2_670,Ir-3,TRUE,F[B]2(F)[N]1=C(C)C(C#CC5=CC=C(C6=[N@]7C=CC=C6)[N@]([Ir]([N@]9=C%11C=CC=C9)(C%10=CC=CC=C%10%11)([C@@]%12=CC=CC=C%12%13)7[N]8=C%13C=CC=C8)=C5)=C(C)C1=C(C4=CC=CC=C4)C3=C(C)C=C(C)N23,527,553,CH3CN ,83000,0.003,,0.97,"CH2Cl2/CH3OH (9:1, v/v) ",,,,,,,10.1021/ic302210b
1139,2_671,B-1,FALSE,F[B]([N]2=C(C)C(C5=CC=C(C(N(C)CC%12%13%14=C%27C%25=C%15%16)C6%12%15=C%13C%11=C(C%36=C%37%38)C%14=C%28C(C%36=C%30C%38=C%31%32)=C%21C%29=C%20C%26=C%19C%18=C(C%25=C%26C%27=C%28%29)C%17=C%16C7=C6C%10=C9C8=C7C(C%17=C%18C%24=C%33C%19=C%20C%35=C%21C%30=C%34C%32=C%22C(C%33=C%34%35)=C%23%24)=C%23C8=C%22C%31=C9C%37=C%10%11)C=C5)=C(C)C2=C3C4=CC=CC=C4)(F)N1C3=C(C)C=C1C,517,535,toluene,76000,0.004,,0.81,methanol,,,,,,,10.1039/c3cc41494a
1140,2_672,B-2,FALSE,F[B]([N]3=C(/C=C/C6=CC=CC=C6)C=C(C)C3=C4C5=CC=C(C7=CC=C(C%18N(C)CC%17(C%18)%26=C%14C8=C%13C%11=C%10C9=C8C%16=C%21C9=C%23C%19=C%10C(C%33=C%35C%19=C%24C%36=C%38C%22=C%31C%20=C%21C%22=C%23%24)=C%11C%12=C(C%33=C%34C%35=C%36C%37=C%38%39)C%28=C%15C%12=C%13C%14=C(C%25=C%26%27)C%15=C(C%29=C%28C%34=C%37C%29=C%30C%39=C%31%32)C%25=C%30C%32=C%27C%20=C%16%17)C=C7)C=C5)(F)N1C4=C(C)C=C1/C=C/C2=CC=CC=C2,630,643,toluene,64000,0.01,,0.82,CH2Cl2,,,,,,,10.1039/c3cc41494a
1141,2_673,B-1,FALSE,CC1=C(I)C(C)=C3N1[B](F)(F)[N]2=C(C)C(I)=C(C)C2=C3C4=CC=CC=C4,529,548,CH2Cl2,85000,0.029,,0.79,Methanol,,,,,,,10.1039/c3ra43299h
1142,2_674,B-2,FALSE,IC1=C(/C=C/C5=CC=CC=C5)N([B](F)(F)[N]2=C(/C=C/C6=CC=CC=C6)C(I)=C(C)C2=C3C4=CC=CC=C4)C3=C1C,630,654,CH2Cl2,77000,0.054,,0.69,CH2Cl2,,,,,,,10.1039/c3ra43299h
1143,2_675,HBDP,FALSE,CC(C=C3C)=C2N3[B](F)(F)[N]1=C(C)C=C(C)C1=C2,504,509,methanol,83000,0.63,,0.02,dichloromethane,,,,,,,10.1039/c3ra40932e
1144,2_676,HBDP-2I,FALSE,CC1=C(I)C(C)=C3N1[B](F)(F)[N]2=C(C)C(I)=C(C)C2=C3,539,562,methanol,74000,0.01,,0.81,dichloromethane,,,,,,,10.1039/c3ra40932e
1145,2_677,MeBDP,FALSE,CC1=CC(C)=C3N1[B](F)(F)[N]2=C(C)C=C(C)C2=C3C,492,504,methanol,68000,0.95,,0.01,dichloromethane,,,,,,,10.1039/c3ra40932e
1146,2_678,MeBDP-2I,FALSE,CC1=C(I)C(C)=C3N1[B](F)(F)[N]2=C(C)C(I)=C(C)C2=C3C,522,552,methanol,23000,0.01,,0.64,dichloromethane,,,,,,,10.1039/c3ra40932e
1147,2_679,PhBDP,FALSE,CC1=CC(C)=C3N1[B](F)(F)[N]2=C(C)C=C(C)C2=C3C4=CC=CC=C4,498,509,methanol,44000,0.65,,0.01,dichloromethane,,,,,,,10.1039/c3ra40932e
1148,2_680,1I-PhBDP,FALSE,CC1=CC(C)=C3N1[B](F)(F)[N]2=C(C)C=C(C)C2=C3C4=CC=C(I)C=C4,499,511,methanol,81000,0.49,,0.01,dichloromethane,,,,,,,10.1039/c3ra40932e
1149,2_681,PhBDP-2I,FALSE,CC3=C(C)C2=C(C4=CC=CC=C4)C1=C(C)C(I)=C(C)N1[B](F)(F)[N]2=C3C.[I],529,556,methanol,69000,0.02,,0.83,dichloromethane,,,,,,,10.1039/c3ra40932e
1150,2_682,Bodipy-Derived Chromophores 7,FALSE,"CC3=[N]2C(C(C)=C3)=C(C4=CC=CC=C4)C1=C(C)C(C#CC5=CC=C(O)C(C6=NC(C=CC=C7)=C7[F,Cl,Br,I]6)=C5)=C(C)[N-]1[B+](F)2F",535,584,PhCH3,56800,,,,,,-5.23,-2.56,-2.67,theoretical,,10.1021/jo300943t
1151,2_682,Bodipy-Derived Chromophores 7,FALSE,"CC3=[N]2C(C(C)=C3)=C(C4=CC=CC=C4)C1=C(C)C(C#CC5=CC=C(O)C(C6=NC(C=CC=C7)=C7[F,Cl,Br,I]6)=C5)=C(C)[N-]1[B+](F)2F",533,590,CH2Cl2,56800,,,,,,-5.23,-2.56,-2.67,theoretical,,10.1021/jo300943t
1152,2_682,Bodipy-Derived Chromophores 7,FALSE,"CC3=[N]2C(C(C)=C3)=C(C4=CC=CC=C4)C1=C(C)C(C#CC5=CC=C(O)C(C6=NC(C=CC=C7)=C7[F,Cl,Br,I]6)=C5)=C(C)[N-]1[B+](F)2F",531,585,THF,58400,,,,,,-5.23,-2.56,-2.67,theoretical,,10.1021/jo300943t
1153,2_682,Bodipy-Derived Chromophores 7,FALSE,"CC3=[N]2C(C(C)=C3)=C(C4=CC=CC=C4)C1=C(C)C(C#CC5=CC=C(O)C(C6=NC(C=CC=C7)=C7[F,Cl,Br,I]6)=C5)=C(C)[N-]1[B+](F)2F",529,583,EtOAc,58900,,,,,,-5.23,-2.56,-2.67,theoretical,,10.1021/jo300943t
1154,2_682,Bodipy-Derived Chromophores 7,FALSE,"CC3=[N]2C(C(C)=C3)=C(C4=CC=CC=C4)C1=C(C)C(C#CC5=CC=C(O)C(C6=NC(C=CC=C7)=C7[F,Cl,Br,I]6)=C5)=C(C)[N-]1[B+](F)2F",528,587,MeOH,57700,,,,,,-5.23,-2.56,-2.67,theoretical,,10.1021/jo300943t
1155,2_682,Bodipy-Derived Chromophores 7,FALSE,"CC3=[N]2C(C(C)=C3)=C(C4=CC=CC=C4)C1=C(C)C(C#CC5=CC=C(O)C(C6=NC(C=CC=C7)=C7[F,Cl,Br,I]6)=C5)=C(C)[N-]1[B+](F)2F",528,594,CH3CN,55600,,,,,,-5.23,-2.56,-2.67,theoretical,,10.1021/jo300943t
1156,2_683,R-1,FALSE,IC3=C(C)C2=C(C5=CC=C(OCC6=CN(CCOC8=CC=C(C9C(C=C%11)C(OC%10=C9C=CC(N(CC)CC)=C%10)=C/C%11=[N+](CC)\CC)C=C8)N=N6)C=C5)C1=C(C)C(I)=C(/C=C/C7=CC=CC=C7)N1[B](F)(F)[N]2=C3/C=C/C4=CC=CC=C4,557,660,DCM,120000,0.09,,0.738,CH2Cl2,,,,,,"557, 639",10.1039/c3tc32456g
1157,2_684,R-2,FALSE,IC3=C(C)C2=C(C5=CC=C(OCC6=CN(CCOC7=CC=C(C8C(C=C%10)C(OC9=C8C=CC(N(CC)CC)=C9)=C/C%10=[N+](CC)\CC)C=C7)N=N6)C=C5)C1=C(C)C(I)=C(C)N1[B](F)(F)[N]2=C3/C=C/C4=CC=C(N(C)C)C=C4,557,739,DCM,89400,0.042,,0.396,CH2Cl2,,,,,,"557, 641",10.1039/c3tc32456g
1158,2_685,B-1,FALSE,IC3=C(C)C2=C(C5=CC=CC=C5)C1=C(C)C(I)=C(/C=C/C6=CC=CC=C6)N1[B](F)(F)[N]2=C3/C=C/C4=CC=CC=C4,637,660,DCM,93600,0.624,,0.101,CH2Cl2,,,,,,,10.1039/c3tc32456g
1159,2_686,B-2,FALSE,IC3=C(C)C2=C(C5=CC=C(OCC#C)C=C5)C1=C(C)C(I)=C(C)N1[B](F)(F)[N]2=C3/C=C/C4=CC=C(N(C)C)C=C4,639,738,DCM,60600,0.034,,0.585,CH2Cl2,,,,,,,10.1039/c3tc32456g
1160,2_687,orthogonal BODIPY dimers 1g,FALSE,F[B]2(F)[N]1=C(C=CC5=CC=C(OCC#C)C=C5)C=C(C)C1=C(C4=CC=C([N+]([O-])=O)C=C4)C3=C(C)C(C7=[C@@]6[C@](C)=C[C@](C)=[N]6[B](F)(F)N8C7=C(C=C8C)C)=C(C)N23,589,,CHCl3,45000,0.22,,0.08,chloroform,,,,,,, 10.1002/chem.201605822
1161,2_688,orthogonal BODIPY dimers 1,FALSE,[H]C3=C([H])C2=C(C4=CC=C(C)C=C4)C1=C([H])C([H])=C([H])N1[B](F)(F)[N]2=C3[H],550,,air-equilibrated ACN,69000,0.04,,0,ACN,,,,,,,10.1111/php.13232
1162,2_689,orthogonal BODIPY dimers 2,FALSE,CC3=C([H])N2[B](F)(F)[N]1=C([H])C(Br)=C([H])C1=C(C4=CC=C(C)C=C4)C2=C3[H].[Br],531,,air-equilibrated ACN,46200,0.33,,0.57,ACN,,,,,,,10.1111/php.13232
1163,2_690,orthogonal BODIPY dimers 3,FALSE,CC3=C(Br)N2[B](F)(F)[N]1=C(Br)C([H])=C([H])C1=C(C4=CC=C(C)C=C4)C2=C3[H].[H],515,,air-equilibrated ACN,75700,,,0.26,ACN,,,,,,,10.1111/php.13232
1164,2_691,orthogonal BODIPY dimers 4,FALSE,CC3=C(Br)N2[B](F)(F)[N]1=C(Br)C(Br)=C([H])C1=C(C4=CC=C(C)C=C4)C2=C3[H].[Br],546,,air-equilibrated ACN,57300,,,0.58,ACN,,,,,,,10.1111/php.13232
1165,2_692,orthogonal BODIPY dimers 5,FALSE,CC3=C(Br)N2[B](F)(F)[N]1=C(Br)C(Br)=C(Br)C1=C(C4=CC=C(C)C=C4)C2=C3Br.[Br],544,,air-equilibrated ACN,70500,,,0.47,ACN,,,,,,,10.1111/php.13232
1166,2_693,orthogonal BODIPY dimers 6,FALSE,CC3=C(I)N2[B](F)(F)[N]1=C(I)C(I)=C([H])C1=C(C4=CC=C(C)C=C4)C2=C3[H].[I],548,,air-equilibrated ACN,43000,0.01,,0.83,ACN,,,,,,,10.1111/php.13232
1167,2_694,orthogonal BODIPY dimers 7,FALSE,CC3=C([H])N2[B](F)(F)[N]1=C([H])C(I)=C([H])C1=C(C4=CC=C(C)C=C4)C2=C3[H].[I],573,,air-equilibrated ACN,48000,0.06,,0.86,ACN,,,,,,,10.1111/php.13232
1168,2_693,orthogonal BODIPY dimers 8,FALSE,CC3=C(I)N2[B](F)(F)[N]1=C(I)C(I)=C([H])C1=C(C4=CC=C(C)C=C4)C2=C3[H].[I],581,,air-equilibrated ACN,43800,0.1,,0.94,ACN,,,,,,,10.1111/php.13232
1169,2_696,orthogonal BODIPY dimers 9,FALSE,CC3=C(C)N2[B](F)(F)C1=C(Br)C(Br)=C([H])C1=CC2=C3C.C[CH2],488,,air-equilibrated ACN,31300,0,,0.9,ACN,,,,,,,10.1111/php.13232
1170,2_696,orthogonal BODIPY dimers 10,FALSE,CC3=C(C)N2[B](F)(F)C1=C(Br)C(Br)=C([H])C1=CC2=C3C.C[CH2],509,,air-equilibrated ACN,33100,,,0.6,ACN,,,,,,,10.1111/php.13232
1171,2_698,orthogonal BODIPY dimers 11,FALSE,CC3=C(C)N2[B](F)(F)C1=C([H])C(I)=C(I)C1=CC2=C3C.C[CH2],503,,air-equilibrated ACN,24400,,,0.99,ACN,,,,,,,10.1111/php.13232
1172,2_699,orthogonal BODIPY dimers 12,FALSE,CC3=C(C)N2[B](F)(F)C1=C(I)C(I)=C([H])C1=CC2=C3C.C[CH2],521,,air-equilibrated ACN,28800,,,0.6,ACN,,,,,,,10.1111/php.13232
1173,2_700,orthogonal BODIPY dimers 13,FALSE,CC3=C(C)N2[B](F)(F)C1=C(I)C(I)=C(I)C1=CC2=C3C.C[CH2],525,,air-equilibrated ACN,33900,,,0.6,ACN,,,,,,,10.1111/php.13232
1174,2_701,orthogonal BODIPY dimers 14,FALSE,CC3=C(C)N2[B](F)(F)[N]1=C(C)C(I)=CC1=C(NC)C2=C3.[I],426,,air-equilibrated ACN,39000,0.02,,0.78,ACN,,,,,,,10.1111/php.13232
1175,2_702,orthogonal BODIPY dimers 15,FALSE,[NH-propynyl]C2=C1[N]([B](F)(F)N3C2=CC(C)=C3C)=C(C)C(I)=C1.[I],440,,air-equilibrated ACN,38000,0.05,,0.96,ACN,,,,,,,10.1111/php.13232
1176,2_703,orthogonal BODIPY dimers 16,FALSE,CC3=C(C)N2[B](F)(F)[N]1=C(C)C(Br)=CC1=C(SC)C2=C3.[Br],527,,air-equilibrated ACN,42000,0.33,,0.61,ACN,,,,,,,10.1111/php.13232
1177,2_704,orthogonal BODIPY dimers 17,FALSE,CC3=C(C)N2[B](F)(F)[N]1=C(C)C(I)=CC1=C(SC)C2=C3.[I],533,,air-equilibrated ACN,43000,0.04,,0.85,ACN,,,,,,,10.1111/php.13232
1178,2_705,orthogonal BODIPY dimers 18,FALSE,CC3=C(C)N2[B](F)(F)[N]1=C(C)C(I)=CC1=C(C#CC#CC#C)C2=C3.[H-]C(O)=O.[HH].[I],550,,air-equilibrated ACN,73000,0.03,,0.66,ACN,,,,,,,10.1111/php.13232
1179,2_706,orthogonal BODIPY dimers 25,FALSE,CC1=CC(C)=[N]3C1=C(C)C2=C(C)C(C(C(N6C(C)=C5)=C5C)=[C@]4[N]([B](F)6F)=[C@@](C)C=[C@]4C)=C(C)N2[B](F)3F,505,,air-equilibrated CHCl3 ,180000,0.22,,0.75,CHCl3,,,,,,,10.1111/php.13232
1180,2_707,orthogonal BODIPY dimers 26,FALSE,CC1=CC(C)=[N]3C1=C([4-nitrophenyl])C2=C(C)C(C(C(N6C(C)=C5)=C5C)=[C@]4[N]([B](F)6F)=[C@@](C)C=[C@]4C)=C(C)N2[B](F)3F,513,,air-equilibrated CHCl3 ,151000,0.01,,0.43,CHCl3,,,,,,,10.1111/php.13232
1181,2_708,orthogonal BODIPY dimers 27,FALSE,CC1=CC(C)=[N]3C1=C([4-aimnophenyl])C2=C(C)C(C(C(N6C(C)=C5)=C5C)=[C@]4[N]([B](F)6F)=[C@@](C)C=[C@]4C)=C(C)N2[B](F)3F,510,,air-equilibrated CHCl3 ,81000,0.05,,0.85,CHCl3,,,,,,,10.1111/php.13232
1182,2_710,orthogonal BODIPY dimers 29,FALSE,CC1=C([2-thienyl])C(C)=[N]3C1=C(C)C2=C(C)C(C(C5=C(C)C([2-thienyl])=C(C)N5[B](F)6F)=[C@]4[N]6=[C@@](C)[C@@]([2-thienyl])=[C@]4C)=C(C)N2[B](F)3F,525,,air-equilibrated CHCl3 ,102000,0.17,,0.12,CHCl3,,,,,,,10.1111/php.13232
1183,2_711,orthogonal BODIPY dimers 30,FALSE,IC(C=C5)=CC=C5C2=C1[N]([B](F)(F)N3C2=C(C)C(C(C7=C8C)=[C@]([C@](C)=C9)[N]([B](F)(F)N7C(C)=C8)=[C@]9C)=C3/C=C/C4=CC=C(OC)C=C4)=C(/C=C/C6=CC=C(OC)C=C6)C=C1C,658,,air-equilibrated CHCl3 ,58000,0.56,,0.11,CHCl3,,,,,,,10.1111/php.13232
1184,2_687,orthogonal BODIPY dimers 31,FALSE,F[B]2(F)[N]1=C(C=CC5=CC=C(OCC#C)C=C5)C=C(C)C1=C(C4=CC=C([N+]([O-])=O)C=C4)C3=C(C)C(C7=[C@@]6[C@](C)=C[C@](C)=[N]6[B](F)(F)N8C7=C(C=C8C)C)=C(C)N23,589,,air-equilibrated CHCl3 ,45000,0.22,,0.2,CHCl3,,,,,,,10.1111/php.13232
1185,3_0,AnTMPyP,FALSE,C[N+](C=C%11)=CC=C%11/C(C5=N/C(C=C5)=C2C4=C%10C(C=CC=C%10)=CC3=CC=CC=C34)=C(C=C7)/N/C7=C(C9=CC=[N+](C)C=C9)\C(C=C6)=N/C6=C(C8=CC=[N+](C)C=C8)\C1=CC=C\2N1,426,650,sodium phosphate buffer (pH7.6).,,,,0.22,sodium phosphate buffer (pH 7.6)and methylene blue,,,,,,"255, 518, 553, 591, 649.",10.1021/jp4072444
1186,3_0,AnTMPyP,FALSE,C[N+](C=C%11)=CC=C%11/C(C5=N/C(C=C5)=C2C4=C%10C(C=CC=C%10)=CC3=CC=CC=C34)=C(C=C7)/N/C7=C(C9=CC=[N+](C)C=C9)\C(C=C6)=N/C6=C(C8=CC=[N+](C)C=C8)\C1=CC=C\2N1,649,650,sodium phosphate buffer (pH7.6).,,,,0.52,H2O,,,,,,"255, 518, 553, 591, 649.",10.1021/jp4072444