,index,name,metal_complex,SMILES,max_absorption_peak,max_emission_peak,solvant_spectrum,molar_extinction_coefficient,quantum_yield_fluorescence,max_phosphorescence_peak,quantum_yield_singlet_oxygen,solvant_quantum_yield,energy_level_exited_triplet_state,energy_level_HUMO,energy_level_LUMO,difference_HOMO_and_LUMO,method_for_HOMO/LUMO,all_absoption_peaks,reference_DOI
89,1_85,MV,FALSE,O=C1C=C2SC3=CC(N(C)C)=CC=C3N=C2C=C1,600,642,MeOH,21600,0.03,,0.73,CD3OD ,,,,,,,10.1039/c3pp50246e
90,1_85,MV,FALSE,O=C1C=C2SC3=CC(N(C)C)=CC=C3N=C2C=C1,549,628,ACN ,60100,0.09,,0.6,ACN ,,,,,,,10.1039/c3pp50246e
91,1_86,EtNBS,FALSE,CC/[NH+]=C1C2=C(C=CC=C2)C3=NC4=CC=C(C(CC)CC)C=C4SC3=C/1.[Cl-],654,693,"ethanol(containing 0.1% acetic
acid)",,0.21,,0.03,ethanol with 1% acetic acid,,,,,,,10.1111/j.1751-1097.2008.00403.x
92,1_87,EtNBS-OH,FALSE,CCC(CC)C1=CC=C(N=C(C2=C/3C=CC=C2)C(S4)=CC3=[NH+]/CCCO)C4=C1.[Cl-],655,685,"ethanol(containing 0.1% acetic
acid)",,0.12,,0.026,ethanol with 1% acetic acid,,,,,,,10.1111/j.1751-1097.2008.00403.x
93,1_88,EtNBS-COOH ,FALSE,CCC(CC)C1=CC=C(N=C(C2=C/3C=CC=C2)C(S4)=CC3=[NH+]/CCCCC(O)=O)C4=C1.[Cl-],655,685,"ethanol(containing 0.1% acetic
acid)",,0.12,,0.032,ethanol with 1% acetic acid,,,,,,,10.1111/j.1751-1097.2008.00403.x
94,1_89,TBO,FALSE,C/[N+](C)=C(C=C1)/C=C(C1=N2)SC3=C2C=C(C)C(N)=C3,626,658,CH3CN,,,,1,CH3CN,,,,,,,10.1111/php.13304
95,1_90,TBOC6 ,FALSE,C/[N+](C)=C(C=C1)/C=C(C1=N2)SC3=C2C=C(C)C(NC(CCCCC)=O)=C3,547,622,CH3CN,,,,0.03,CH3CN,,,,,,,10.1111/php.13304
96,1_91,TBOC14 ,FALSE,C/[N+](C)=C(C=C1)/C=C(C1=N2)SC3=C2C=C(C)C(NC(CCCCCCCCCCCCC)=O)=C3,548,627,CH3CN,,,,0.3,CH3CN,,,,,,,10.1111/php.13304
97,1_92,TBO,FALSE,CC1=CC2=C(C=C1N)SC3=C/C(C=CC3=N2)=[N+](C)/C,636,664,phosphate buffer pH 7.0,,,,0.14,phosphate buffer,,,,,,,10.1016/j.dyepig.2022.110225
98,1_93,TBOPDP,FALSE,C/[N+](C)=C1C=CC2=NC3=C(C=C(NC(CCSSC4=CC=CC=N4)=O)C(C)=C3)SC2=C\1,609,651,phosphate buffer pH 7.0,,,,0.12,phosphate buffer,,,,,,,10.1016/j.dyepig.2022.110225
99,1_94,TBOEMC,FALSE,C/[N+](C)=C1C=CC2=NC3=C(C=C(NC(CCCCCN4C(C=CC4=O)=O)=O)C(C)=C3)SC2=C\1,610,656,phosphate buffer pH 7.0,,,,0.17,phosphate buffer,,,,,,,10.1016/j.dyepig.2022.110225
100,2_0,PS-1,FALSE,[H]C4=C2N(C(/C=C/C8=CC=C(N(C%10=CC=CC=C%10)C9=CC=CC=C9)C=C8)=C4[H])[B-][N+]1=C(/C=C/C5=CC=C(N(C7=CC=CC=C7)C6=CC=CC=C6)C=C5)C([H])=C([H])C1=C2C3=CC=C(C(O)=O)C=C3.[F].[F],724,799,CHCl3,60000,0.045,,,,,5.08,3.56,1.52,electrochemistry,,10.1039/C0SC00649A
101,2_1,PS-2,FALSE,[H]C4=C2N(C(/C=C/C8=CC=C(N(C%10=CC=C(OC)C=C%10)C9=CC(OC)=CC=C9)C=C8)=C4)[B-][N+]1=C(/C=C/C5=CC=C(N(C7=CC=C(OC)C=C7)C6=CC=C(OC)C=C6)C=C5)C=C([H])C1=C2C3=CC=C(C(O)=O)C=C3.[F].[F],746,835,CHCl3,66000,0.007,,,,,5.05,3.62,1.43,electrochemistry,,10.1039/C0SC00649A
102,2_2,PS-3,FALSE,[H]C4=C2N(C(/C=C/C8=CC=C(N(C%10=CC=CC=C%10)C9=CC=CC=C9)C=C8)=C4I)[B-][N+]1=C(/C=C/C5=CC=C(N(C7=CC=CC=C7)C6=CC=CC=C6)C=C5)C(I)=C([H])C1=C2C3=CC=C(C(O)=O)C=C3.[F].[F],761,824,CHCl3,68000,0,,,,,5.17,3.79,1.38,electrochemistry,,10.1039/C0SC00649A
103,2_3,PS-4,FALSE,[H]C4=C2N(C(/C=C/C6=CC(OCCCCCCCCCCCCCCCCCC)=C(OCCCCCCCCCCCCCCCCCC)C(OCCCCCCCCCCCCCCCCCC)=C6)=C4)[B-][N+]1=C(/C=C/C5=CC(OCCCCCCCCCCCCCCCCCC)=C(OCCCCCCCCCCCCCCCCCC)C(OCCCCCCCCCCCCCCCCCC)=C5)C=C([H])C1=C2C3=CC=C(C(O)=O)C=C3.[F].[F],668,699,CHCl3,74000,0.32,,,,,5.25,3.6,1.65,electrochemistry,,10.1039/C0SC00649A
104,2_4,PS-5,FALSE,CC4=C2N(C(/C=C/C9=CC=C(N(C%11=CC=CC=C%11)C%10=CC=CC=C%10)C=C9)=C4C#CC5=CC=C(C(O)=O)C=C5)[B-][N+]1=C(/C=C/C6=CC=C(N(C8=CC=CC=C8)C7=CC=CC=C7)C=C6)C=C(C)C1=C2C3=CC(O[R])=CC(O[R])=C3.[F].[F],707,758,CHCl3,71000,0.12,,,,,5.03,3.48,1.55,electrochemistry,,10.1039/C0SC00649A
105,2_5,PS-6,FALSE,CC4=C2N(C(/C=C/C8=CC=C(N(C%10=CC=CC=C%10)C9=CC=CC=C9)C=C8)=C4/C=C(C(O)=O)\C#N)[B-][N+]1=C(/C=C/C5=CC=C(N(C7=CC=CC=C7)C6=CC=CC=C6)C=C5)C=C(C)C1=C2C3=CC(OCCCCCCCCCC)=CC(OCCCCCCCCCC)=C3.[F].[F],695,742,CHCl3,79000,0.11,,,,,5.21,3.55,1.66,electrochemistry,,10.1039/C0SC00649A
106,2_6,Dyes 1,FALSE,F[B]3(F)[N]1=C(C)C(CC)=C(C)C1=C(C4=CC=C(N(C6=CC=CC=C6)C5=CC=CC=C5)C=C4)C2=C(C)C(CC)=C(C)N23,525,542,dichloromethane ,53800,,,,,,-5.089,-2.419,-2.67,theoretical,"495, 525 ",10.1039/C5CP05177K
107,2_7,Dyes 2,FALSE,F[B]3(F)[N]1=C(C)C(CC)=C(C)C1=C(C4=CC=C(N(C6=CC=C(C(OCC)=O)C=C6)C5=CC=C(C(OCC)=O)C=C5)C=C4)C2=C(C)C(CC)=C(C)N23,526,542,dichloromethane ,53200,,,,,,-5.405,-2.474,-2.931,theoretical,"497, 526",10.1039/C5CP05177K
108,2_8,Dyes 3,FALSE,F[B]3(F)[N]1=C(C)C(CC)=C(C)C1=C(C4=CC=C(N(C6=CC=CC=C6)C5=CC=C(C(C8=C(C)C(CC)=C(C)N8[B](F)9F)=C7[N]9=C(C)C(CC)=C7C)C=C5)C=C4)C2=C(C)C(CC)=C(C)N23,525,542,dichloromethane ,78800,,,,,,-5.208,-2.42,-2.788,theoretical,"494, 525",10.1039/C5CP05177K
109,2_9,Dyes 4,FALSE,F[B]3(F)[N]1=C(C)C(CC)=C(C)C1=C(C4=CC=C(N(C6=CC=C(C%10=CC=C(C(O)=O)C=C%10)C=C6)C5=CC=C(C(C8=C(C)C(CC)=C(C)N8[B](F)9F)=C7[N]9=C(C)C(CC)=C7C)C=C5)C=C4)C2=C(C)C(CC)=C(C)N23,526,539,dichloromethane ,817000,,,,,,-6.539,-1.468,-5.071,theoretical,"330, 360, 526",10.1039/C5CP05177K
110,2_10,Dyes 5,FALSE,F[B]3(F)[N]1=C(C4=CC=C(C(C)(C)C)C=C4)C=CC1=C(C5=CC=C(N(C8=CC=C(C%14=CC=C(C([H])=O)C=C%14)C=C8)C7=CC=C(C%10=C9=CCC(C%13=CC=C(C(C)(C)C)C=C%13)=[N]9[B](F)(F)N%11C%10=CC=C%11C%12=CC=C(C(C)(C)C)C=C%12)C=C7)C=C5)C2=CC=C(C6=CC=C(C(C)(C)C)C=C6)N23,561,600,dichloromethane ,65824,,,,,,-5.391,-2.87,-2.521,theoretical,"308, 351, 561 ",10.1039/C5CP05177K
111,2_11,Dyes 6,FALSE,F[B]3(F)[N]1=C(C)C(CC)=C(C)C1=C(C%12=CC=C(S%12)C4=CC=C(N(C6=CC=C(C7=CC=C(C(O)=O)C=C7)C=C6)C5=CC=C(C8=CC=C(C%10=C9=C(C)C(CC)C(C)=[N]9[B](F)(F)N%11C%10=C(C)C(CC)=C%11C)S8)C=C5)C=C4)C2=C(C)C(CC)=C(C)N23,540,560,dichloromethane ,112000,,,,,,-5.131,-2.594,-2.537,theoretical,"365, 412, 597, 540",10.1039/C5CP05177K
112,2_12,Dyes 7,FALSE,F[B]3(F)[N]1=C(C4=CC=CC=C4)C=CC1=C(C%14=CC=C(S%14)C6=CC=C(N(C8=CC=C(C(O)=O)C=C8)C7=CC=C(C9=CC=C(C%11=C%10=CCC(C%15=CC=CC=C%15)=[N]%10[B](F)(F)N%12C%11=CC=C%12C%13=CC=CC=C%13)S9)C=C7)C=C6)C2=CC=C(C5=CC=CC=C5)N23,565,608,dichloromethane ,65700,,,,,,-5.192,-2.928,-2.264,theoretical,"358, 565",10.1039/C5CP05177K
113,2_13, Bodipy-CO2H),FALSE,F[B]3(F)[N]1=C(C)C(CC)=C(C)C1=C(C4=CC=C(C(O)=O)C=C4)C2=C(C)C(CC)=C(C)N23,528,547,dichloromethane ,52000,,,,,,-5.208,-2.478,-2.73,theoretical,528,10.1039/C5CP05177K
114,2_14,TB-5,FALSE,CC3=[N+]2C(C=C3)=C(C4=CC=C(C(O)=O)S4)C1=CC=C(C)[N+]1[B](F)2F,520,,MeOH,43700,,,,,,4.84,3.52,1.32,electrochemistry,,10.1039/c4nj02393e
115,2_15,TB-6,FALSE,CC1=CC=C3[N+]1[B](F)(F)[N+]2=C(/C=C/C5=CC=C(N(C7=CC=C(C8=C(C(C)%11C)C=CC=C8)C%11=C7)C6=CC%10=C(C9=C(C(C)%10C)C=CC=C9)C=C6)C=C5)C=CC2=C3C4=CC=C(C(O)=O)S4,665,,DCM,38800,,,,,,5.1,3.51,1.59,electrochemistry,,10.1039/c4nj02393e
116,2_16,TB-7,FALSE,F[B]2(F)[N+]1=C(/C=C/C5=CC=C(N(C7=CC=C(C8=C(C(C)%11C)C=CC=C8)C%11=C7)C6=CC%10=C(C9=C(C(C)%10C)C=CC=C9)C=C6)C=C5)C=CC1=C(C4=CC=C(C(O)=O)S4)C3=CC=C(/C=C/C%12=CC=C(N(C%14=CC=C(C%15=C(C(C)%18C)C=CC=C%15)C%18=C%14)C%13=CC%17=C(C%16=C(C(C)%17C)C=CC=C%16)C=C%13)C=C%12)[N+]23,773,,DCM,537000,,,,,,5.02,3.56,1.46,electrochemistry,,10.1039/c4nj02393e
117,2_17,BOD-TTPA-alk,FALSE,CC3=C(/C=C/C6=CC=C(C7=CC=C(N(C%12=CC=C(CCCCCC)C=C%12)C%10=CC=C(CCCCCC)C=C%10)C=C7)S6)N2[B](C#CCOCCOC)(C#CCOCCOC)[N]1=C(/C=C/C5=CC=C(C8=CC=C(N(C%11=CC=C(CCCCCC)C=C%11)C9=CC=C(CCCCCC)C=C9)C=C8)S5)C(C)=CC1=C(C4=CC=C(/C=C(C(O)=O)/C#N)C=C4)C2=C3,409,,THF,64900,,,,,,-4.95,-3.6,-1.35,electrochemistry,,10.3762/bjoc.15.169
118,2_18,BOD-TTPA,FALSE,CC3=C(/C=C/C6=CC=C(C7=CC=C(N(C%12=CC=CC=C%12)C%10=CC=CC=C%10)C=C7)S6)N2[B](F)(F)[N]1=C(/C=C/C5=CC=C(C8=CC=C(N(C%11=CC=CC=C%11)C9=CC=CC=C9)C=C8)S5)C(C)=CC1=C(C4=CC=C(/C=C(C(O)=O)/C#N)C=C4)C2=C3,411,,THF,65200,,,,,,-5,-3.8,-1.2,electrochemistry,,10.3762/bjoc.15.169
119,2_19,UY5,FALSE,CC1=C(C5=CC(SC6=CC=CC=C6N7CCC)=C7C=C5)C(C)=[N]3C1=C(CCCCC)C2=C(C)C(C4=CC=C(/C=C(C(O)=O)\C#N)S4)=C(C)N2[B](F)3F,536,,CHCl3,72400,,,,,,-5.34,-3.33,-2.01,electrochemistry,,10.1016/j.orgel.2014.05.024
120,2_20,UY6,FALSE,CC1=C(C5=CC(SC6=CC=CC=C6N7CCC)=C7C=C5)C(C)=[N]3C1=C(CCCCC)C2=C(C)C(C4=CC=C(/C=C(C(N8CC(O)=O)=O)\SC8=S)S4)=C(C)N2[B](F)3F,541,,CHCl3,60200,,,,,,-5.34,-3.39,-1.95,electrochemistry,,10.1016/j.orgel.2014.05.024
121,2_21,UY7,FALSE,CC1=C(C5=CC(SC6=CC=CC=C6N7CCC)=C7C=C5)C(C)=[N]3C1=C(CCCCC)C2=C(C)C(C4=CC=C(/C=C(C(O)=O)\C#N)O4)=C(C)N2[B](F)3F,553,,CHCl3,76000,,,,,,-5.33,-3.42,-1.91,electrochemistry,,10.1016/j.orgel.2014.05.024
122,2_22,UY8,FALSE,CC1=C(C5=CC(SC6=CC=CC=C6N7CCC)=C7C=C5)C(C)=[N]3C1=C(CCCCC)C2=C(C)C(C4=CC=C(/C=C(C(N8CC(O)=O)=O)\SC8=S)O4)=C(C)N2[B](F)3F,556,,CHCl3,56400,,,,,,-5.32,-3.5,-1.82,electrochemistry,,10.1016/j.orgel.2014.05.024
123,2_23,iodinated-BODIPY 1a,FALSE,CC1=C(I)C(C)=[N]3C1=C(C4=CC=C(O)C=C4)C2=C(C)C=C(C)N2[B](F)3F,515,535,dichloromethane,,,,,,,-5.56,-3.28,-2.28,electrochemistry,,10.1016/j.dyepig.2017.01.067
124,2_23,iodinated-BODIPY 1a,FALSE,CC1=C(I)C(C)=[N]3C1=C(C4=CC=C(O)C=C4)C2=C(C)C=C(C)N2[B](F)3F,515,535,dichloromethane,,,,,,,-5.97,-2.99,-2.98,theoretical,,10.1016/j.dyepig.2017.01.067
125,2_24,iodinated-BODIPY 1b,FALSE,CC1=C(I)C(C)=[N]3C1=C(C4=CC=C(O)C=C4)C2=C(C)C(I)=C(C)N2[B](F)3F,540,553,dichloromethane,,,,,,,-5.61,-3.46,-2.15,electrochemistry,,10.1016/j.dyepig.2017.01.067
126,2_24,iodinated-BODIPY 1b,FALSE,CC1=C(I)C(C)=[N]3C1=C(C4=CC=C(O)C=C4)C2=C(C)C(I)=C(C)N2[B](F)3F,540,553,dichloromethane,,,,,,,-6.03,-3.1,-2.93,theoretical,,10.1016/j.dyepig.2017.01.067
127,2_25,iodinated-BODIPY 1c,FALSE,CC1=C(I)C(C)=[N]3C1=C(C4=CC=C(O)C(I)=C4)C2=C(C)C(I)=C(C)N2[B](F)3F,550,562,dichloromethane,,,,,,,-5.65,-3.47,-2.18,electrochemistry,,10.1016/j.dyepig.2017.01.067
128,2_25,iodinated-BODIPY 1c,FALSE,CC1=C(I)C(C)=[N]3C1=C(C4=CC=C(O)C(I)=C4)C2=C(C)C(I)=C(C)N2[B](F)3F,550,562,dichloromethane,,,,,,,-6.06,-3.16,-2.9,theoretical,,10.1016/j.dyepig.2017.01.067
129,2_26,iodinated-BODIPY 1d,FALSE,CC1=C(I)C(C)=[N]3C1=C(C4=CC(I)=C(O)C(I)=C4)C2=C(C)C(I)=C(C)N2[B](F)3F,555,565,dichloromethane,,,,,,,-5.68,-3.5,-2.18,electrochemistry,,10.1016/j.dyepig.2017.01.067
130,2_26,iodinated-BODIPY 1d,FALSE,CC1=C(I)C(C)=[N]3C1=C(C4=CC(I)=C(O)C(I)=C4)C2=C(C)C(I)=C(C)N2[B](F)3F,555,565,dichloromethane,,,,,,,-6.08,-3.2,-2.88,theoretical,,10.1016/j.dyepig.2017.01.067
131,2_27,h-BOD,FALSE,O=C(O)C(C=C5)=CC=C5C#CC3=C(C)C2=C(C8=C(OCCCCCCCC)C=CC=C8OCCCCCCCC)C1=C(C)C(C4=CC=C(N(C7=CC=C(CCCCCC)C=C7)C6=CC=C(CCCCCC)C=C6)C=C4)=C(C)N1[B](C#CCOCCOC)(C#CCOCCOC)[N]2=C3C,553,652,THF,54500,,,,,,-5.87,-3.81,-2.06,electrochemistry,,10.1039/C9SE01090D
132,2_28,cc-BOD,FALSE,O=C(O)C(C=C6)=CC=C6C#CC3=C(C)C2=C(C9=C(OCCCCCCCC)C=CC=C9OCCCCCCCC)C1=C(C)C(C5=CC=C(N(C8=CC=C(CCCCCC)C=C8)C7=CC=C(CCCCCC)C=C7)C=C5)=C(/C=C/C%10=CC=C(CCCCCC)S%10)N1[B](C#CCOCCOC)(C#CCOCCOC)[N]2=C3/C=C/C4=CC=C(CCCCCC)S4,668,708,THF,102000,,,,,,-5.74,-4.03,-1.71,electrochemistry,,10.1039/C9SE01090D
133,2_29,halogenated BODIPY dye 3,FALSE,CC2=C(I)C(C)=[N](C2=C3C4=CC=C(OCCOCCOCCO)C=C4)[B](F)(F)N1C3=C(C)C(I)=C1C,528,546,ACN,75500,0.02,,0.93,ACN,,,,,,,10.1002/ejoc.201601054
134,2_30,aza-BODIPY-a,FALSE,F[B-]([N+]3=C(C7=CC=CC=C7)C=C(C5=CC=C(Br)C=C5)C3=N4)(F)N1C4=C(C6=CC=C(Br)C=C6)C=C1C2=CC=CC=C2,662,,toluene,61659.50019,,,0.006,dichloromethane,,,,,,"484, 662",10.1039/C6RA10131C
135,2_31,aza-BODIPY-b,FALSE,F[B-]([N+]3=C(C5=CC=C(Br)C=C5)C=C(C6=CC=CC=C6)C3=N4)(F)N1C4=C(C7=CC=CC=C7)C=C1C2=CC=C(Br)C=C2,663,,toluene,85113.80382,,,0.008,dichloromethane,,,,,,"483, 663",10.1039/C6RA10131C
136,2_32,Ir-C Bonded Porphyrin-Aza-BODIPY 1a,TRUE,F[B-]([N+]3=C(C%15=CC=CC=C%15)C=C(C5=CC=C(C)C=C5)C3=N4)(F)N1C4=C(C6=CC=[C@]([Ir]9([N]%10=C%14C=CC%10=C%11[Tol])(N%13C(C=CC%13=C%14[Tol])=C%12[Tol])N7C%11=CC=C7C([Tol])=C8C=CC%12=[N]89)C=C6)C=C1C2=CC=CC=C2,411,,toluene,56234.13252,,,0.85,dichloromethane,,,,,,"411, 512, 628, 685",10.1039/C6RA10131C
137,2_33,Ir-C Bonded Porphyrin-Aza-BODIPY 1b,TRUE,F[B-]([N+]3=C(C5=CC=[C@@]([Ir]8([N]9=C%13C=CC9=C%10[Tol])(N%12C(C=CC%12=C%13[Tol])=C%11[Tol])N6C%10=CC=C6C([Tol])=C7C=CC%11=[N]78)C=C5)C=C(C%15=CC=CC=C%15)C3=N4)(F)N1C4=C(C%14=CC=CC=C%14)C=C1C2=CC=C(Br)C=C2,406,,toluene,239883.2919,,,0.79,dichloromethane,,,,,,"406, 510, 739",10.1039/C6RA10131C
138,2_34,BODIPYs 2,FALSE,[3，5-(CF3)2C6H3]C(C2=CC(C=CC=C4)=C4N2[B@@-](F)3F)=C1[N+]3=C(C=CC=C5)C5=C1,581,,CH2Cl2,44668.35922,,,,,,-5.91,-3.58,-2.33,electrochemistry,,10.1246/cl.130360
139,2_35,BODIPYs 3,FALSE,[3，5-(CF3)2C6H3]C(C2=CC(SC=C5)=C5N2[B@@-](F)3F)=C1[N+]3=C(C=CS4)C4=C1,582,606,CH2Cl2,97723.7221,0.06,,,,,-5.8,-3.28,-2.52,electrochemistry,,10.1246/cl.130360
140,2_36,BODIPYs 6,FALSE,[3，5-(CF3)2C6H3]C(C2=CC(C([H])([H])C=CC([H])4[H])=C4N2[B@@-](F)3F)=C1[N+]3=C(C([H])([H])C=CC([H])5[H])C5=C1,556,579,CH2Cl2,38904.5145,0.3,,,,,-5.63,-2.87,-2.76,electrochemistry,,10.1246/cl.130360
141,2_37,orthogonal Bodipy trimers 5a,FALSE,CC4=C2N(C(C)=C4C5=C(C(C)=C[C@@H]9C)N9[B@](F)(F)N6C5=C(C)C=C6C)[B@](F)(F)[N]1=C(C)C(C7=C(C(C)=CC%10C)N%10[B@@](F)(C)N8C7=[C@@](C)C=C8C)=C(C)C1=C2[C@@]3=CC=[C@]([C@](C)(C)C)C=C3,507,,DCM,181500,,,0.53,DCM,,,,,,,10.1021/acs.orglett.6b02418
142,2_38,MPBTCA,FALSE,CC(C2=C(C)C(C5=CC=C(N(C7=CC=C(OC)C=C7)C6=CC=C(OC)C=C6)C=C5)=C(C)N2[B](F)3F)=C1[N]3=CC(C4=CC=C(/C=C(C(O)=O)/C#N)S4)=C1C,545,,CHCl3,60800,,,,,,-5.46,-3.53,-1.93,spectrometry ,,10.1002/chem.201702285
143,2_39,MPBTTCA,FALSE,CC(C2=C(C)C(C5=CC=C(N(C7=CC=C(OC)C=C7)C6=CC=C(OC)C=C6)C=C5)=C(C)N2[B](F)3F)=C1[N]3=CC(C4=CC(SC(/C=C(C(O)=O)/C#N)=C8)C8S4)=C1C.C,541,,CHCl3,69000,,,,,,-5.45,-3.53,-1.92,spectrometry ,,10.1002/chem.201702285
144,2_40,MPCtBTCA ,FALSE,CC(C2=C(C)C(C6=CC=C(N(C9=CC=C(OC)C=C9)C8=CC=C(OC)C=C8)C=C6)=C(C)N2[B](O7)3OC4=C7C=CC=C4)=C1[N]3=CC(C5=CC=C(/C=C(C(O)=O)/C#N)S5)=C1C,545,,CHCl3,27000,,,,,,-5.47,-3.55,-1.92,spectrometry ,,10.1002/chem.201702285
145,2_41,MPBT-pyO ,FALSE,CC(C2=C(C)C(C5=CC=C(N(C8=CC=C(OC)C=C8)C7=CC=C(OC)C=C7)C=C5)=C(C)N2[B](F)3F)=C1[N]3=CC(C4=CC=C(C6=CC=[N]([O])C=C6)S4)=C1C,537,,CHCl3,42600,,,,,,-5.38,-3.46,-1.92,spectrometry ,,10.1002/chem.201702285
146,2_42,MPBTT-pyO ,FALSE,CC(C2=C(C)C(C5=CC=C(N(C7=CC=C(OC)C=C7)C6=CC=C(OC)C=C6)C=C5)=C(C)N2[B](F)3F)=C1[N]3=CC(C4=CC(SC(C9=CC=[N]([O])C=C9)=C8)C8S4)=C1C.C,535,,CHCl3,40600,,,,,,-5.4,-3.46,-1.94,spectrometry ,,10.1002/chem.201702285
147,2_43,MTBTCA,FALSE,CC(C2=C(C)C(C5=CC=C(N(C7=CC=C(OC)C=C7)C6=CC=C(OC)C=C6)S5)=C(C)N2[B](F)3F)=C1[N]3=CC(C4=CC=C(/C=C(C(O)=O)/C#N)S4)=C1C,535,,CHCl3,23800,,,,,,-5.53,-3.57,-1.96,spectrometry ,,10.1002/chem.201702285
148,2_44,PPBTCA ,FALSE,CC(C2=C(C)C(C5=CC=C(N(C7=CC=CC=C7)C6=CC=CC=C6)C=C5)=C(C)N2[B](F)3F)=C1[N]3=CC(C4=CC=C(/C=C(C(O)=O)/C#N)S4)=C1C,537,,CHCl3,53100,,,,,,-5.71,-3.79,-1.92,spectrometry ,,10.1002/chem.201702285
149,2_45,OMK-PY,FALSE,F[B-]3(F)N1C(C(C6=CC=C(/C=C(C7=CC=NC=C7)\C#N)S6)=C4[N+]3=C(C5=CC=C(C8=CC%11=C(C%10=C(N%11CCCC)C=C(N(C%13=CC=CC=C%13)C%12=CC=CC=C%12)C=C%10)C=C8)S5)C=C4)=CC=C1C2=CC=C(C9=CC=C(C%14=CC=C(N(C%17=CC=CC=C%17)C%16=CC=CC=C%16)C=C%14N%15CCCC)C%15=C9)S2,753,,THF,95400,,,,,,-5.4,-3.96,-1.44,electrochemistry,"385, 574, 753",10.1039/c7ra00799
150,2_46,OMK-CA,FALSE,F[B-]3(F)N1C(C(C6=CC=C(/C=C(C(O)=O)\C#N)S6)=C4[N+]3=C(C5=CC=C(C7=CC%10=C(C9=C(N%10CCCC)C=C(N(C%12=CC=CC=C%12)C%11=CC=CC=C%11)C=C9)C=C7)S5)C=C4)=CC=C1C2=CC=C(C8=CC=C(C%13=CC=C(N(C%16=CC=CC=C%16)C%15=CC=CC=C%15)C=C%13N%14CCCC)C%14=C8)S2,754,,THF,83100,,,,,,-5.41,-3.97,-1.44,electrochemistry,"385, 574, 754",10.1039/c7ra00799
151,2_47,DBDP1,FALSE,F[B]2(F)N1C(C(C4=CC(OCCCC)=C(C(C6=CC=CN6[B](F)7F)=C5[N]7=CC=C5)C=C4OCCCC)=C3[N]2=CC=C3)=CC=C1,507,532,CH2Cl2,90200,0.59,,,,,-4.5,-2.43,-2.07,electrochemistry,,10.1007/s40242-013-3090-y
152,2_47,DBDP1,FALSE,F[B]2(F)N1C(C(C4=CC(OCCCC)=C(C(C6=CC=CN6[B](F)7F)=C5[N]7=CC=C5)C=C4OCCCC)=C3[N]2=CC=C3)=CC=C1,501,633,EtOAc,75600,0.92,,,,,-4.5,-2.43,-2.07,electrochemistry,,10.1007/s40242-013-3090-y
153,2_47,DBDP1,FALSE,F[B]2(F)N1C(C(C4=CC(OCCCC)=C(C(C6=CC=CN6[B](F)7F)=C5[N]7=CC=C5)C=C4OCCCC)=C3[N]2=CC=C3)=CC=C1,498,526,CH3COCH3,62200,0.42,,,,,-4.5,-2.43,-2.07,electrochemistry,,10.1007/s40242-013-3090-y
154,2_47,DBDP1,FALSE,F[B]2(F)N1C(C(C4=CC(OCCCC)=C(C(C6=CC=CN6[B](F)7F)=C5[N]7=CC=C5)C=C4OCCCC)=C3[N]2=CC=C3)=CC=C1,500,513,CH3OH,39100,0.8,,,,,-4.5,-2.43,-2.07,electrochemistry,,10.1007/s40242-013-3090-y
155,2_48,DBDP2,FALSE,F[B]2(F)N1C(C(C4=CC(OCCCC)=C(C5=CC(OCCCC)=C(C(C7=CC=CN7[B](F)8F)=C6[N]8=CC=C6)C=C5OCCCC)C=C4OCCCC)=C3[N]2=CC=C3)=CC=C1,506,648,CH2Cl2,84900,0.26,,,,,-4.52,-2.48,-2.04,electrochemistry,,10.1007/s40242-013-3090-y
156,2_48,DBDP2,FALSE,F[B]2(F)N1C(C(C4=CC(OCCCC)=C(C5=CC(OCCCC)=C(C(C7=CC=CN7[B](F)8F)=C6[N]8=CC=C6)C=C5OCCCC)C=C4OCCCC)=C3[N]2=CC=C3)=CC=C1,501,670,EtOAc,75000,0.36,,,,,-4.52,-2.48,-2.04,electrochemistry,,10.1007/s40242-013-3090-y
157,2_48,DBDP2,FALSE,F[B]2(F)N1C(C(C4=CC(OCCCC)=C(C5=CC(OCCCC)=C(C(C7=CC=CN7[B](F)8F)=C6[N]8=CC=C6)C=C5OCCCC)C=C4OCCCC)=C3[N]2=CC=C3)=CC=C1,498,532,CH3COCH3,61600,0.11,,,,,-4.52,-2.48,-2.04,electrochemistry,,10.1007/s40242-013-3090-y
158,2_48,DBDP2,FALSE,F[B]2(F)N1C(C(C4=CC(OCCCC)=C(C5=CC(OCCCC)=C(C(C7=CC=CN7[B](F)8F)=C6[N]8=CC=C6)C=C5OCCCC)C=C4OCCCC)=C3[N]2=CC=C3)=CC=C1,500,525,CH3OH,38700,0.82,,,,,-4.52,-2.48,-2.04,electrochemistry,,10.1007/s40242-013-3090-y
159,2_49,DBDP3,FALSE,F[B]2(F)N1C(C(C(C=C9)=CC=C9C4=CC(OCCCC)=C(C5=CC=C(C(C7=CC=CN7[B](F)8F)=C6[N]8=CC=C6)C=C5)C=C4OCCCC)=C3[N]2=CC=C3)=CC=C1,503,524,CH2Cl2,63400,0.42,,,,,-4.55,-2.42,-2.13,electrochemistry,,10.1007/s40242-013-3090-y
160,2_49,DBDP3,FALSE,F[B]2(F)N1C(C(C(C=C9)=CC=C9C4=CC(OCCCC)=C(C5=CC=C(C(C7=CC=CN7[B](F)8F)=C6[N]8=CC=C6)C=C5)C=C4OCCCC)=C3[N]2=CC=C3)=CC=C1,499,523,EtOAc,63000,0.28,,,,,-4.55,-2.42,-2.13,electrochemistry,,10.1007/s40242-013-3090-y
161,2_49,DBDP3,FALSE,F[B]2(F)N1C(C(C(C=C9)=CC=C9C4=CC(OCCCC)=C(C5=CC=C(C(C7=CC=CN7[B](F)8F)=C6[N]8=CC=C6)C=C5)C=C4OCCCC)=C3[N]2=CC=C3)=CC=C1,498,508,CH3COCH3,48600,0.12,,,,,-4.55,-2.42,-2.13,electrochemistry,,10.1007/s40242-013-3090-y
162,2_50,PBI-BODIPY,FALSE,CC3=CC(/C=C/C6=CC=C(N(C)C)C=C6)=[N](C3=C4C5=CC=C(C8=C(C9=CC=C(C%12=O)C%10=C(C(N%12C(CC)CC)=O)C=CC=C9%10)C7=CC=CC(C(N%11C(CC)CC)=O)=C7C(C%11=O)=C8)C=C5)[B](F)(F)N1C4=C(C)C=C1/C=C/C2=CC=C(N(C)C)C=C2,705,760,DCM,,,,,,,0.53,-1.1,1.63,electrochemistry,,10.1039/C5RA25139G
163,2_51,PTAC-BODIPY,FALSE,CC3=CC(/C=C/C6=CC=C(N(C)C)C=C6)=[N](C3=C4C5=CC=C(C8=C(C9=CC=C(C(OCCCC)=O)C%10=C(C(OCCCC)=O)C=CC=C9%10)C7=CC=CC(C(OCCCC)=O)=C7C(C(OCCCC)=O)=C8)C=C5)[B](F)(F)N1C4=C(C)C=C1/C=C/C2=CC=C(N(C)C)C=C2,705,760,DCM,,,,,,,0.53,-1,1.53,electrochemistry,,10.1039/C5RA25139G
164,2_52,OMe-PTAC-BODIPY,FALSE,CC3=CC(/C=C/C6=CC=C(N(C)C)C=C6)=[N](C3=C4C5=CC=C(C8=C(C9=CC=C(C(OCCCC)=O)C%10=C(C(OCCCC)=O)C=C(OC)C=C9%10)C7=CC=CC(C(OCCCC)=O)=C7C(C(OCCCC)=O)=C8)C=C5)[B](F)(F)N1C4=C(C)C=C1/C=C/C2=CC=C(N(C)C)C=C2,705,760,DCM,,,,,,,0.53,-0.5,1.03,electrochemistry,,10.1039/C5RA25139G
165,2_53,BI-1,FALSE,F[B]2(F)[N]1=C(C)C(I)=C(C)C1=C(C4=CC=CC=C4)C3=C(C)C(C5=CC=C(I)S5)=C(C)N23,532,609,toluene,69700,0.075,,,,,-5.62,-2.75,-2.87,theoretical,,10.1039/c2ra01064
166,2_54,BI-2,FALSE,F[B]2(F)[N]1=C(C)C(C6=CC=C(I)S6)=C(C)C1=C(C4=CC=CC=C4)C3=C(C)C(C5=CC=C(I)S5)=C(C)N23,526,612,toluene,49000,0.124,,,,,-5.55,-2.71,-2.84,theoretical,,10.1039/c2ra01064
167,2_55,odinated nitro-substituted aza-BODIPYs 5,FALSE,F[B@@]([N@]3=C(C7=CC=C([N+]([O-])=O)C=C7)C(I)=C(C5=CC=CC=C5)C3=N4)(F)N1C4=C(C6=CC=CC=C6)C(I)=C1C2=CC=C([N+]([O-])=O)C=C2,649,697,acetonitrile,42000,,,0.8,toluene,,-6.26,1.65,-7.91,electrochemistry,,10.1002/asia.201701485
168,2_56,odinated nitro-substituted aza-BODIPYs 6,FALSE,F[B@@]([N@]3=C(C7=CC=C([N+]([O-])=O)C=C7)C(I)=C(C5=CC=C([N+]([O-])=O)C=C5)C3=N4)(F)N1C4=C(C6=CC=C([N+]([O-])=O)C=C6)C(I)=C1C2=CC=C([N+]([O-])=O)C=C2,663,715,acetonitrile,49000,,,0.73,toluene,,-6.06,1.55,-7.61,electrochemistry,,10.1002/asia.201701485
169,2_57,odinated nitro-substituted aza-BODIPYs 7,FALSE,F[B@@]([N@]3=C(C7=CC=C([N+]([O-])=O)C=C7)C(I)=C(C5=CC=C([C@](C)(C)C)C=C5)C3=N4)(F)N1C4=C(C6=CC=C([C@@](C)(C)C)C=C6)C(I)=C1C2=CC=C([N+]([O-])=O)C=C2,645,697,acetonitrile,41000,,,0.8,toluene,,-6.18,1.63,-7.81,electrochemistry,,10.1002/asia.201701485
170,2_58,odinated nitro-substituted aza-BODIPYs 8,FALSE,F[B@@]([N@]3=C(C7=CC=C([C@@](C)(C)C)C=C7)C(I)=C(C5=CC=C([N+]([O-])=O)C=C5)C3=N4)(F)N1C4=C(C6=CC=C([N+]([O-])=O)C=C6)C(I)=C1C2=CC=C([C@](C)(C)C)C=C2,672,732,acetonitrile,50000,,,0.77,toluene,,-6.13,1.53,-7.66,electrochemistry,,10.1002/asia.201701485