,index,name,metal_complex,SMILES,max_absorption_peak,max_emission_peak,solvant_spectrum,molar_extinction_coefficient,quantum_yield_fluorescence,max_phosphorescence_peak,quantum_yield_singlet_oxygen,solvant_quantum_yield,energy_level_exited_triplet_state,energy_level_HUMO,energy_level_LUMO,difference_HOMO_and_LUMO,method_for_HOMO/LUMO,all_absoption_peaks,reference_DOI
1827,8_4,2,FALSE,OC1=CC(OC)=C2C(C(C3=C4OC)=C5C6=C(C(C(OC)=C5C([H])=C(C)C3)=O)C(O)=CC(OC)=C26)=C1C4=O,,,,,,,,,,,,,,,"zhao kaihong,jiang lijin.zhu hong jun su de jie gou xiu shi[J].you ji hua xue,1990(04):339-324."
1828,8_5,3,FALSE,OC1=CC(OC)=C2C(C(C3=C4OC)=C5C6=C(C(C(OC)=C5C(C(C)=O)=C(C(O)=O)C3)=O)C(O)=CC(OC)=C26)=C1C4=O,,,,,,,0.19,CHCl3,,,,,,,"zhao kaihong,jiang lijin.zhu hong jun su de jie gou xiu shi[J].you ji hua xue,1990(04):339-325."
1829,8_6,4,FALSE,OC1=CC(OC)=C2C(C(C3=C4OC)=C5C6=C(C(C(OC)=C5C([H])=C(C=O)C3)=O)C(O)=CC(OC)=C26)=C1C4=O,,,,,,,0.18,CHCl3,,,,,,,"zhao kaihong,jiang lijin.zhu hong jun su de jie gou xiu shi[J].you ji hua xue,1990(04):339-326."
1830,8_7,5,FALSE,OC1=CC(OC)=C2C(C(C3=C4OC)=C5C6=C(C(C(OC)=C5C([H])=C(CO)C3)=O)C(O)=CC(OC)=C26)=C1C4=O,,,,,,,,,,,,,,,"zhao kaihong,jiang lijin.zhu hong jun su de jie gou xiu shi[J].you ji hua xue,1990(04):339-327."
1831,8_8,6,FALSE,OC1=CC(OC)=C2C(C(C3=C4OC)=C5C6=C(C(C([H])=C5C(C(C)=O)=C(C)C3)=O)C(O)=CC(OC)=C26)=C1C4=O,678,,CH3OH,4365.2,,,,,,,,,,"218, 250, 339, 472, 520, 576, 678","zhao kaihong,jiang lijin.zhu hong jun su de jie gou xiu shi[J].you ji hua xue,1990(04):339-328."
1832,8_9,6,FALSE,OC1=CC(OC)=C2C(C(C3=C4OC)=C5C6=C(C(C([H])=C5C(C(C)=O)=C(C)C3)=O)C(O)=CC(OC)=C26)=C1C4=O,576,,CH3OH+HCl,11220.2,,,,,,,,,,"218, 250, 341, 472, 508, 576, ","zhao kaihong,jiang lijin.zhu hong jun su de jie gou xiu shi[J].you ji hua xue,1990(04):339-329."
1833,8_10,6,FALSE,OC1=CC(OC)=C2C(C(C3=C4OC)=C5C6=C(C(C([H])=C5C(C(C)=O)=C(C)C3)=O)C(O)=CC(OC)=C26)=C1C4=O,736,,CH3CN,8709.6,,,,,,,,,,"230, 264, 440, 507, 574, 736","zhao kaihong,jiang lijin.zhu hong jun su de jie gou xiu shi[J].you ji hua xue,1990(04):339-330."
1834,8_11,6,FALSE,OC1=CC(OC)=C2C(C(C3=C4OC)=C5C6=C(C(C([H])=C5C(C(C)=O)=C(C)C3)=O)C(O)=CC(OC)=C26)=C1C4=O,580,,CH3CN+HCl,10964.8,,,,,,,,,,"228, 250, 482. 508, 580","zhao kaihong,jiang lijin.zhu hong jun su de jie gou xiu shi[J].you ji hua xue,1990(04):339-331."
1835,8_12,6,FALSE,OC1=CC(OC)=C2C(C(C3=C4OC)=C5C6=C(C(C([H])=C5C(C(C)=O)=C(C)C3)=O)C(O)=CC(OC)=C26)=C1C4=O,762,,DMSO,4786.3,,,,,,,,,,"260, 342, 474, 534, 578, 762","zhao kaihong,jiang lijin.zhu hong jun su de jie gou xiu shi[J].you ji hua xue,1990(04):339-332."
1836,8_13,6,FALSE,OC1=CC(OC)=C2C(C(C3=C4OC)=C5C6=C(C(C([H])=C5C(C(C)=O)=C(C)C3)=O)C(O)=CC(OC)=C26)=C1C4=O,581,,DMSO+HCl,12022.6,,,,,,,,,,"260, 342, 484, 534, 581","zhao kaihong,jiang lijin.zhu hong jun su de jie gou xiu shi[J].you ji hua xue,1990(04):339-333."
1837,8_14,6,FALSE,OC1=CC(OC)=C2C(C(C3=C4OC)=C5C6=C(C(C([H])=C5C(C(C)=O)=C(C)C3)=O)C(O)=CC(OC)=C26)=C1C4=O,652,,water+1%KOH,11749,,,,,,,,,,"213, 270, 420, 466, 586, 652","zhao kaihong,jiang lijin.zhu hong jun su de jie gou xiu shi[J].you ji hua xue,1990(04):339-334."
1838,8_15,7,FALSE,OC1=CC(OC)=C2C(C(C3=C4[H])=C5C6=C(C(C([H])=C5C(C(C)=O)=C(C)C3)=O)C(O)=CC(OC)=C26)=C1C4=O,650,,CH3OH,3548.1,,,,,,,,,,"208, 274, 484, 520, 558, 650","zhao kaihong,jiang lijin.zhu hong jun su de jie gou xiu shi[J].you ji hua xue,1990(04):339-335."
1839,8_16,7,FALSE,OC1=CC(OC)=C2C(C(C3=C4[H])=C5C6=C(C(C([H])=C5C(C(C)=O)=C(C)C3)=O)C(O)=CC(OC)=C26)=C1C4=O,554,,CH3OH+HCl,10000,,,,,,,,,,"208, 272, 482, 516, 554","zhao kaihong,jiang lijin.zhu hong jun su de jie gou xiu shi[J].you ji hua xue,1990(04):339-336."
1840,8_17,7,FALSE,OC1=CC(OC)=C2C(C(C3=C4[H])=C5C6=C(C(C([H])=C5C(C(C)=O)=C(C)C3)=O)C(O)=CC(OC)=C26)=C1C4=O,716,,CH3CN,4786.3,,,,,,,,,,"226, 256, 442, 516. 554, 716","zhao kaihong,jiang lijin.zhu hong jun su de jie gou xiu shi[J].you ji hua xue,1990(04):339-337."
1841,8_18,7,FALSE,OC1=CC(OC)=C2C(C(C3=C4[H])=C5C6=C(C(C([H])=C5C(C(C)=O)=C(C)C3)=O)C(O)=CC(OC)=C26)=C1C4=O,556,,CH3CN+HCl,9772.4,,,,,,,,,,"232, 256, 480, 516, 556","zhao kaihong,jiang lijin.zhu hong jun su de jie gou xiu shi[J].you ji hua xue,1990(04):339-338."
1842,8_19,7,FALSE,OC1=CC(OC)=C2C(C(C3=C4[H])=C5C6=C(C(C([H])=C5C(C(C)=O)=C(C)C3)=O)C(O)=CC(OC)=C26)=C1C4=O,750,,DMSO,4570.9,,,,,,,,,,"274, 448, 522, 558, 750","zhao kaihong,jiang lijin.zhu hong jun su de jie gou xiu shi[J].you ji hua xue,1990(04):339-339."
1843,8_20,7,FALSE,OC1=CC(OC)=C2C(C(C3=C4[H])=C5C6=C(C(C([H])=C5C(C(C)=O)=C(C)C3)=O)C(O)=CC(OC)=C26)=C1C4=O,560,,DMSO+HCl,11749,,,,,,,,,,"274, 478, 522,, 560","zhao kaihong,jiang lijin.zhu hong jun su de jie gou xiu shi[J].you ji hua xue,1990(04):339-340."
1844,8_21,7,FALSE,OC1=CC(OC)=C2C(C(C3=C4[H])=C5C6=C(C(C([H])=C5C(C(C)=O)=C(C)C3)=O)C(O)=CC(OC)=C26)=C1C4=O,,,water+1%KOH,,,,,,,,,,,,"zhao kaihong,jiang lijin.zhu hong jun su de jie gou xiu shi[J].you ji hua xue,1990(04):339-341."
1845,8_22,8,FALSE,OC1=CC(OC)=C(C2=C(OC)C=C(O)C(C3=O)=C2C4=C(C(C(C)=O)=C(C)C5)C3=O)C(C4=C5C6=O)=C1C6=O,,,,,,,,,,,,,,,"zhao kaihong,jiang lijin.zhu hong jun su de jie gou xiu shi[J].you ji hua xue,1990(04):339-342."
1846,8_23,HB,FALSE,OC1=CC(OC)=C2C(C(C3=C4OC)=C5C6=C(C(C(OC)=C5C(C(C)=O)=C(C)C3)=O)C(O)=CC(OC)=C26)=C1C4=O,460,612,EtOH,,,,0.47,EtOH,,,,,,,10.1360/csb1991-36-20-1551
1847,8_24,1,FALSE,OC1=C([H])C(OC)=C2C(C(C3=C4OC)=C5C6=C(C(C(OC)=C5C(C(C)=O)=C(C)C3)=O)C(O)=C(O)C(OC)=C26)=C1C4=O,,,,,,,,,,,,,,,10.1360/csb1991-36-20-1551
1848,8_25,2,FALSE,OC1=C(SCC(N)C(O)=O)C(OC)=C2C(C(C3=C4OC)=C5C6=C(C(C(OC)=C5C(C(C)=O)=C(C)C3)=O)C(O)=C([H])C(OC)=C26)=C1C4=O,652,,CHCl3,17782.8,,,,,,,,,,"528, 599, 652",10.1360/csb1991-36-20-1551
1849,8_26,3,FALSE,OC1=C(C(C(OC)=C2C(C(C)=O)=C(C)C3)=O)C4=C2C(C3=C5OC)=C6C(C(OC)=C7C(NC(C(O)=O)CS7)=C6C5=O)=C4C(OC)=C1,648,,CHCl3,18197,,,,,,,,,,"528, 592, 648",10.1360/csb1991-36-20-1551
1850,8_27,4,FALSE,OC1=C(SCCN)C(OC)=C2C(C(C3=C4OC)=C5C6=C(C(C(OC)=C5C(C(C)=O)=C(C)C3)=O)C(O)=C([H])C(OC)=C26)=C1C4=O,648,,CHCl3,16218.1,,,,,,,,,,"532, 598, 648",10.1360/csb1991-36-20-1551
1851,8_28,5,FALSE,OC1=C(C(C(OC)=C2C(C(C)=O)=C(C)C3)=O)C4=C2C(C3=C5OC)=C6C(C(OC)=C7C(NCCS7)=C6C5=O)=C4C(OC)=C1,652,,CHCl3,16595.9,,,,,,,,,,"532, 596, 652",10.1360/csb1991-36-20-1551
1852,8_29,1A,FALSE,OC1=CC(OC)=C2C(C(C3=C4OC)=C5C6=C(C(C(OC)=C5C(C(C)=O)=C(C)C3)=O)C(O)=CC(OC)=C26)=C1C4=O,,,,,,,,,,,,,,,10.2514/6.1982-18
1853,8_30,1B,FALSE,O=C(C=C1OC)C2=C(C3=C4C(OC)=C2O)C1=C(C(OC)=C5)C(C3=C(C(C(C)=O)=C(C)C4)C(OC)=C6O)=C6C5=O,,,,,,,,,,,,,,,10.2514/6.1982-18
1854,8_31,2A,FALSE,O=C1C2=C3C(C4=C(OC)C=C(NC)C5=C4C(C6=C(OC)C5=O)=C3C(C(C(C)=O)=C(C)C6)=C1OC)=C(OC)C=C2NC,648,,CHCl3,,,,0.8,benzene,,,,,,"496, 602, 648",10.2514/6.1982-18
1855,8_32,2B,FALSE,O=C(C=C1OC)C2=C(C3=C4C(OC)=C2NC)C1=C(C(OC)=C5)C(C3=C(C(C(C)=O)C(C)=C4)C(OC)=C6NC)=C6C5=O,,,,,,,,,,,,,,,10.2514/6.1982-18
1856,8_33,3A,FALSE,O=C1C2=C3C(C4=C(OC)C=C(NCCO)C5=C4C(C6=C(OC)C5=O)=C3C(C(C(C)=O)=C(C)C6)=C1OC)=C(OC)C=C2NCCO,658,,CHCl3,,,,0.7,benzene,,,,,,"468, 614, 658",10.2514/6.1982-18
1857,8_34,3B,FALSE,O=C(C=C1OC)C2=C(C3=C4C(OC)=C2NCCO)C1=C(C(OC)=C5)C(C3=C(C(C(C)=O)C(C)=C4)C(OC)=C6NCCO)=C6C5=O,636,,CHCl3,,,,0.6,benzene,,,,,,"460, 600, 636",10.2514/6.1982-18
1858,8_35,4A,FALSE,O=C1C2=C3C(C4=C(OC)C=C(NCCCC)C5=C4C(C6=C(OC)C5=O)=C3C(C(C(C)=O)=C(C)C6)=C1OC)=C(OC)C=C2NCCCC,686,,CHCl3,,,,0.6,benzene,,,,,,"412, 428, 472, 646, 686",10.2514/6.1982-18
1859,8_36,4B,FALSE,O=C(C=C1OC)C2=C(C3=C4C(OC)=C2NCCCC)C1=C(C(OC)=C5)C(C3=C(C(C(C)=O)C(C)=C4)C(OC)=C6NCCCC)=C6C5=O,718,,CHCl3,,,,0.57,benzene,,,,,,"456, 596, 644, 718",10.2514/6.1982-18
1860,8_37,5A,FALSE,O=C1C2=C3C(C4=C(OC)C=C(NCCN(CC)CC)C5=C4C(C6=C(OC)C5=O)=C3C(C(C(C)=O)=C(C)C6)=C1OC)=C(OC)C=C2NCCN(CC)CC,646,,CHCl3,,,,0.29,benzene,,,,,,"430, 462, 554, 604, 646",10.2514/6.1982-18
1861,8_38,5B,FALSE,O=C(C=C1OC)C2=C(C3=C4C(OC)=C2NCCN(CC)CC)C1=C(C(OC)=C5)C(C3=C(C(C(C)=O)C(C)=C4)C(OC)=C6NCCN(CC)CC)=C6C5=O,716,,CHCl3,,,,0.36,benzene,,,,,,"464, 562, 606, 656, 716",10.2514/6.1982-18
1862,8_39,6A,FALSE,O=C1C2=C3C(C4=C(OC)C=C(NCCCN(C)C)C5=C4C(C6=C(OC)C5=O)=C3C(C(C(C)=O)=C(C)C6)=C1OC)=C(OC)C=C2NCCCN(C)C,,,,,,,,,,,,,,,10.2514/6.1982-18
1863,8_40,6B,FALSE,O=C(C=C1OC)C2=C(C3=C4C(OC)=C2NCCCN(C)C)C1=C(C(OC)=C5)C(C3=C(C(C(C)=O)C(C)=C4)C(OC)=C6NCCCN(C)C)=C6C5=O,640,,CHCl3,,,,0.5,benzene,,,,,,"434, 468, 592, 640",10.2514/6.1982-18
1864,8_41,7B,FALSE,O=C(C=C1OC)C2=C(C3=C4C(OC)=C2NCCNCCO)C1=C(C(OC)=C5)C(C3=C(C(C(C)=O)C(C)=C4)C(OC)=C6NCCNCCO)=C6C5=O,696,,CHCl3,,,,0.42,benzene,,,,,,"462, 538, 594, 640, 696",10.2514/6.1982-18
1865,8_42,8B,FALSE,O=C(C=C1OC)C2=C(C3=C4C(OC)=C2NCCOCCO)C1=C(C(OC)=C5)C(C3=C(C(C(C)=O)C(C)=C4)C(OC)=C6NCCOCCO)=C6C5=O,638,,CHCl3,,,,0.72,benzene,,,,,,"440, 458, 594, 638",10.2514/6.1982-18
1866,8_43,9B,FALSE,O=C(C=C1OC)C2=C(C3=C4C(OC)=C2NCCN5CCOCC5)C1=C(C(OC)=C6)C(C3=C(C(C(C)=O)C(C)=C4)C(OC)=C7NCCN8CCOCC8)=C7C6=O,644,,CHCl3,,,,0.67,benzene,,,,,,"434, 466, 596, 644",10.2514/6.1982-18
1867,8_44,10,FALSE,O=C1C2=C3C(C4=C(OC)C5=C(NCCN5)C6=C4C(C7=C(OC)C6=O)=C3C(C(C(C)=O)=C(C)C7)=C1OC)=C(OC)C8=C2NCCN8,614,,CHCl3,,,,0.7,benzene,,,,,,"454, 614",10.2514/6.1982-18
1868,8_45,11A or12A,FALSE,OC1=CC(OC)=C2C3=C(OC)C=C(NC)C4=C3C(C5=C(OC)C4=O)=C6C2=C1C(C(OC)=C6C(C(C)=O)=C(C)C5)=O,618,,CHCl3,,,,0.5,benzene,,,,,,"412, 442, 468, 574, 618",10.2514/6.1982-18
1869,8_46,11B or12B,FALSE,O=C1C=C(OC)C2=C(C3=C/4C(O)=C(OC)C5=C3C6=C(C(C(C)=O)C(C)=C5)C(OC)=C(O)C1=C26)C(OC)=CC4=N/C,648,,CHCl3,,,,0.42,benzene,,,,,,"498, 602, 648",10.2514/6.1982-18
1870,8_47,13,FALSE,OC1=CC(OC)=C2C(C(C3=C4OC)=C5C6=C(C(C(OC)=C5C(C(C)=O)C(C)(NC)C3)=O)C(O)=CC(OC)=C26)=C1C4=O,576,,CHCl3,,,,0.84,benzene,,,,,,"484, 532, 576",10.2514/6.1982-18
1871,8_48,1A,FALSE,OC1=CC(OCO2)=C3C(C(C(CC(O)C)=C4OC)=C5C6=C(C(C(OC)=C5CC(O)C)=O)C(O)=CC2=C36)=C1C4=O,,,,,,,0.81,benzene,,,,,,,org/10.1016/1011-1344(93)80055-E
1872,8_49,1B,FALSE,O=C(C=C1OCOC2=C3)C4=C(C5=C(CC(O)C)C(OC)=C4O)C1=C2C(C5=C(CC(O)C)C(OC)=C6O)=C6C3=O,,,,,,,0.79,benzene,,,,,,,org/10.1016/1011-1344(93)80055-E
1874,8_51,2A,FALSE,OC1=C(Br)C(OCO2)=C3C(C(C(CC(O)C)=C4OC)=C5C6=C(C(C(OC)=C5CC(O)C)=O)C(O)=C(Br)C2=C36)=C1C4=O,,,,,,,,,,,,,,,org/10.1016/1011-1344(93)80055-E
1875,8_52,2B,FALSE,O=C(C(Br)=C1OCOC2=C3Br)C4=C(C5=C(CC(O)C)C(OC)=C4O)C1=C2C(C5=C(CC(O)C)C(OC)=C6O)=C6C3=O,,,,,,,,,,,,,,,org/10.1016/1011-1344(93)80055-E
1876,8_53,3A,FALSE,OC1=C(SC2=CC=CC=C2)C(OCO3)=C4C(C(C(CC(O)C)=C5OC)=C6C7=C(C(C(OC)=C6CC(O)C)=O)C(O)=C(SC8=CC=CC=C8)C3=C47)=C1C5=O,,,,,,,,,,,,,,,org/10.1016/1011-1344(93)80055-E
1877,8_54,3B,FALSE,O=C(C(SC1=CC=CC=C1)=C2OCOC3=C4SC5=CC=CC=C5)C6=C(C7=C(CC(O)C)C(OC)=C6O)C2=C3C(C7=C(CC(O)C)C(OC)=C8O)=C8C4=O,,,,,,,,,,,,,,,org/10.1016/1011-1344(93)80055-E
1878,8_55,4A,FALSE,O=C1C2=C3C(C4=C(OCO5)C=C(OC)C6=C4C(C(CC(OC)C)=C(OC)C6=O)=C3C(CC(OC)C)=C1OC)=C5C=C2OC,,,,,,,0.25,benzene,,,,,,,org/10.1016/1011-1344(93)80055-E
1879,8_56,4B,FALSE,O=C(C=C1OCOC2=C3)C4=C(C5=C(CC(OC)C)C(OC)=C4OC)C1=C2C(C5=C(CC(OC)C)C(OC)=C6OC)=C6C3=O,,,,,,,0.24,benzene,,,,,,,org/10.1016/1011-1344(93)80055-E
1880,8_57,5A,FALSE,O=C1C2=C3C(C4=C(OCO5)C=C(OC(C)=O)C6=C4C(C(CC(OC(C)=O)C)=C(OC)C6=O)=C3C(CC(OC(C)=O)C)=C1OC)=C5C=C2OC(C)=O,,,,,,,0.22,benzene,,,,,,,org/10.1016/1011-1344(93)80055-E
1881,8_58,5B,FALSE,O=C(C=C1OCOC2=C3)C4=C(C5=C(CC(OC(C)=O)C)C(OC)=C4OC(C)=O)C1=C2C(C5=C(CC(OC(C)=O)C)C(OC)=C6OC(C)=O)=C6C3=O,,,,,,,0.23,benzene,,,,,,,org/10.1016/1011-1344(93)80055-E
1882,8_59,6A,FALSE,OC1=CC(OC)=C2C(C(C3=C4OC)=C5C6=C(C(C(OC)=C5C(C(C)=O)C(C)(O)C3)=O)C(O)=CC(OC)=C26)=C1C4=O,,,,,,,0.83,benzene,,,,,,,org/10.1016/1011-1344(93)80055-E
1883,8_60,6B,FALSE,O=C(C=C1OC)C2=C(C3=C4C(OC)=C2O)C1=C(C(OC)=C5)C(C3=C(C(C(C)=O)C(C)(O)C4)C(OC)=C6O)=C6C5=O,,,,,,,,,,,,,,,org/10.1016/1011-1344(93)80055-E
1884,8_61,7A,FALSE,O=C1C2=C3C(C4=C(OC)C=C(OC)C5=C4C(C6=C(OC)C5=O)=C3C(C(C(C)=O)C(C)(OC)C6)=C1OC)=C(OC)C=C2OC,,,,,,,0.26,benzene,,,,,,,org/10.1016/1011-1344(93)80055-E
1885,8_62,7B,FALSE,O=C(C=C1OC)C2=C(C3=C4C(OC)=C2OC)C1=C(C(OC)=C5)C(C3=C(C(C(C)=O)C(C)(OC)C4)C(OC)=C6OC)=C6C5=O,,,,,,,0.24,benzene,,,,,,,org/10.1016/1011-1344(93)80055-E
1886,8_63,8A,FALSE,O=C1C2=C3C(C4=C(OC)C=C(OC(C)=O)C5=C4C(C6=C(OC)C5=O)=C3C(C(C(C)=O)C(C)(OC(C)=O)C6)=C1OC)=C(OC)C=C2OC(C)=O,,,,,,,0.23,benzene,,,,,,,org/10.1016/1011-1344(93)80055-E
1887,8_64,8B,FALSE,O=C(C=C1OC)C2=C(C3=C4C(OC)=C2OC(C)=O)C1=C(C(OC)=C5)C(C3=C(C(C(C)=O)C(C)(OC(C)=O)C4)C(OC)=C6OC(C)=O)=C6C5=O,,,,,,,0.23,benzene,,,,,,,org/10.1016/1011-1344(93)80055-E
1888,8_65,9A,FALSE,OC1=CC(OC)=C2C(C(C3=C4OC)=C5C6=C(C(C(OC)=C5C(C(C)=O)=C(C)C3)=O)C(O)=CC(OC)=C26)=C1C4=O,,,,,,,0.76,benzene,,,,,,,org/10.1016/1011-1344(93)80055-E
1889,8_66,9B,FALSE,O=C(C=C1OC)C2=C(C3=C4C(OC)=C2O)C1=C(C(OC)=C5)C(C3=C(C(C(C)=O)C(C)=C4)C(OC)=C6O)=C6C5=O,,,,,,,,,,,,,,,org/10.1016/1011-1344(93)80055-E
1890,8_67,10A,FALSE,OC1=CC(OC)=C2C(C(C3=C4OC)=C5C6=C(C(C(OC)=C5C(C(C)=O)=C(C(O)=O)C3)=O)C(O)=CC(OC)=C26)=C1C4=O,,,,,,,0.75,benzene,,,,,,,org/10.1016/1011-1344(93)80055-E
1891,8_68,10B,FALSE,O=C(C=C1OC)C2=C(C3=C4C(OC)=C2O)C1=C(C(OC)=C5)C(C3=C(C(C(C)=O)=C(C(O)=O)C4)C(OC)=C6O)=C6C5=O,,,,,,,,,,,,,,,org/10.1016/1011-1344(93)80055-E
1892,8_69,11A,FALSE,OC1=CC(OC)=C2C(C(C3=C4OC)=C5C6=C(C(C(OC)=C5C([H])=C(C)C3)=O)C(O)=CC(OC)=C26)=C1C4=O,,,,,,,0.79,benzene,,,,,,,org/10.1016/1011-1344(93)80055-E
1893,8_70,11B,FALSE,O=C(C=C1OC)C2=C(C3=C4C(OC)=C2O)C1=C(C(OC)=C5)C(C3=C(C([H])C(C)=C4)C(OC)=C6O)=C6C5=O,,,,,,,,,,,,,,,org/10.1016/1011-1344(93)80055-E
1894,8_71,12A,FALSE,OC1=CC(OC)=C2C(C(C3=C4OC)=C5C6=C(C(C(OC)=C5C([H])=C(C=O)C3)=O)C(O)=CC(OC)=C26)=C1C4=O,,,,,,,0.75,benzene,,,,,,,org/10.1016/1011-1344(93)80055-E
1895,8_72,12B,FALSE,O=C(C=C1OC)C2=C(C3=C4C(OC)=C2O)C1=C(C(OC)=C5)C(C3=C(C([H])C(C=O)=C4)C(OC)=C6O)=C6C5=O,,,,,,,,,,,,,,,org/10.1016/1011-1344(93)80055-E
1896,8_73,13A,FALSE,O=C1C2=C3C(C4=C(OC)C=C(OC)C5=C4C(C6=C(OC)C5=O)=C3C(C(C(C)=O)=C(C)C6)=C1OC)=C(OC)C=C2OC,,,,,,,0.24,benzene,,,,,,,org/10.1016/1011-1344(93)80055-E
1897,8_74,13B,FALSE,O=C(C=C1OC)C2=C(C3=C4C(OC)=C2OC)C1=C(C(OC)=C5)C(C3=C(C(C(C)=O)C(C)=C4)C(OC)=C6OC)=C6C5=O,,,,,,,0.25,benzene,,,,,,,org/10.1016/1011-1344(93)80055-E
1898,8_75,14A,FALSE,O=C1C2=C3C(C4=C(OC)C=C(OC(C)=O)C5=C4C(C6=C(OC)C5=O)=C3C(C(C(C)=O)=C(C)C6)=C1OC)=C(OC)C=C2OC(C)=O,,,,,,,0.21,benzene,,,,,,,org/10.1016/1011-1344(93)80055-E
1899,8_76,14B,FALSE,O=C(C=C1OC)C2=C(C3=C4C(OC)=C2OC(C)=O)C1=C(C(OC)=C5)C(C3=C(C(C(C)=O)C(C)=C4)C(OC)=C6OC(C)=O)=C6C5=O,,,,,,,0.18,benzene,,,,,,,org/10.1016/1011-1344(93)80055-E
1900,8_77,15,FALSE,OC1=CC(OCO2)=C3C(C(C4=C5OC(C)C4)=C6C7=C(C(C8=C6CC(C)O8)=O)C(O)=CC2=C37)=C1C5=O,,,,,,,0.63,benzene,,,,,,,org/10.1016/1011-1344(93)80055-E
1901,8_78,16,FALSE,OC1=CC(OC)=C2C(C(C(CC(OC)=O)=C3O)=C4C5=C(C(C(O)=C4CC(OC)=O)=O)C(O)=CC(OC)=C25)=C1C3=O,,,,,,,0.09,benzene,,,,,,,org/10.1016/1011-1344(93)80055-E
1902,8_79,17,FALSE,OC1=CC(OC)=C2C(C(C3=C4O)=C5C6=C(C(C(OC)=C5C(C(C)=O)=C(C)C3)=O)C(O)=CC(OC)=C26)=C1C4=O,,,,,,,0.07,benzene,,,,,,,org/10.1016/1011-1344(93)80055-E
1903,8_80,19,FALSE,OC1=CC(OC)=C2C(C(C3=C4O)=C5C6=C(C(C(O)=C5C(C(C)=O)=C(C)C3)=O)C(O)=CC(OC)=C26)=C1C4=O,,,,,,,,,,,,,,,org/10.1016/1011-1344(93)80055-E
1904,8_81,20,FALSE,OC1=CC(OC)=C(C2=C(OC)C=C(O)C(C3=O)=C2C4=C(C(C(C)=O)=C(C)C5)C3=O)C(C4=C5C6=O)=C1C6=O,,,,,,,0.42,benzene,,,,,,,org/10.1016/1011-1344(93)80055-E
1905,8_82,21,FALSE,CC(OC(C)=O)CC(C(OC)=C1OC(C)=O)=C2C3=C1C(OC(C)=O)=CC(OCO4)=C3C5=C4C=C(OC(C)=O)C6=C5C2=C(CC(OC(C)=O)C)C(OC)=C6OC(C)=O,,,,,,,0.13,benzene,,,,,,,org/10.1016/1011-1344(93)80055-E
1906,8_83,22,FALSE,CC(C1)(OC(C)=O)C(C(C)=O)C2=C3C4=C(C(OC(C)=O)=C2OC)C(OC(C)=O)=CC(OC)=C4C5=C(OC)C=C(OC(C)=O)C6=C5C3=C1C(OC)=C6OC(C)=O,,,,,,,0.13,benzene,,,,,,,org/10.1016/1011-1344(93)80055-E
1907,8_84,23,FALSE,OC1=C(OC)C(C(C(C)=O)=C(C)C2)=C3C4=C1C(OC(C)=O)=CC(OC)=C4C5=C(OC)C=C(OC(C)=O)C6=C5C3=C2C(OC)=C6O,,,,,,,0.12,benzene,,,,,,,org/10.1016/1011-1344(93)80055-E
1908,8_85,24,FALSE,O=C(C=C1OC)C2=C(C(C3=C(C(C(C)=O)C(C)(O)C4)C(OC)=C(O)C5=C3C(C(OC)=CC5=O)=O)=C4C(OC)=C2O)C1=O,,,,,,,0.08,benzene,,,,,,,org/10.1016/1011-1344(93)80055-E
1909,8_86,25,FALSE,O=C(C=C1OC)C2=C(C(C3=C(C(C(C)=O)=C(C)C4)C(OC)=C(O)C5=C3C(C(OC)=CC5=O)=O)=C4C(OC)=C2O)C1=O,,,,,,,0.07,benzene,,,,,,,org/10.1016/1011-1344(93)80055-E
1910,8_87,8a,FALSE,O=C1C2=C(C(C3=CC(C(C)(C)C)=CC4=C53)=CC(C(C)(C)C)=C2)C(C6=C1C=CC(C(C)(C)C)=C6)=C5C(C=C(C(C)(C)C)C=C7)=C7C4=O,466,513,CH2Cl2,32500,,,,,,,,,,,org/10.1002/cber.19931260523
1911,8_88,9,FALSE,O=C1C2=C(C(C3=CC=CC4=C53)=C(CCCCCC)C(CCCCCC)=C2)C(C6=C1C=CC=C6C7=C(CCCCCC)C(CCCCCC)=C8)=C5C7=C8C4=O,442,469,CH2Cl2,35700,,,,,,,,,,,org/10.1002/cber.19931260523
1912,8_89,10,FALSE,OC1=C2C(C3=CC(C(C)(C)C)=C2)=C(C4=C(C=C(C(C)(C)C)C=C5)C5=C(O)C6=C4C3=CC(C(C)(C)C)=C6)C7=CC(C(C)(C)C)=CC=C71,647,696,H2SO4,23400,,,,,,,,,,,org/10.1002/cber.19931260523
1913,8_90,11a,FALSE,OC1=C2C(C3=C(CCCCCC)C(CCCCCC)=C2)=C(C4=C(C5=C(CCCCCC)C(CCCCCC)=C6)C6=C(O)C7=C4C3=CC=C7)C8=C5C=CC=C81,605,632,H2SO4,21400,,,,,,,,,,"544, 605",org/10.1002/cber.19931260523
1914,8_91,11b,FALSE,OC1=C2C(C3=C([H])C([H])=C2)=C(C4=C(C5=C([H])C([H])=C6)C6=C(O)C7=C4C3=CC=C7)C8=C5C=CC=C81,572,580,H2SO4,16600,,,,,,,,,,"511, 572",org/10.1002/cber.19931260523
1915,8_92,化合物1,FALSE,NC1=CC(OC)=C2C(C(C3=C4OC)=C5C6=C(C(C(OC)=C5C(C(C)=O)=C(C)C3)=O)C(N)=CC(OC)=C26)=C1C4=O,630,,DMSO,9785,,,0.87,benzene,,,,,,"616, 630",org/10.1016/0891-5849(95)02061-6
1916,8_93,化合物2,FALSE,O=C1C2C(C(C=CC2NC(C)C)=O)C(NC(C)C)C=C1,630,,DMSO,3780,,,0.57,benzene,,,,,,"600, 630",org/10.1016/0891-5849(95)02061-6
1917,8_94,1a,FALSE,O=C(C(O)=C1OC)C2=C(C3=C4C(OC)=C2O)C1=C(C(OC)=C5[H])C(C3=C(C(C(C)=O)C(C)=C4)C(OC)=C6O)=C6C5=O,488,,CHCl3,3980,,,0.67,CHCl3,,,,,,488,org/10.1016/S0143-7208(97)00122-8
1918,8_95,1b,FALSE,O=C(C([H])=C1OC)C2=C(C3=C4C(OC)=C2O)C1=C(C(OC)=C5O)C(C3=C(C(C(C)=O)C(C)=C4)C(OC)=C6O)=C6C5=O,,,,,,,,,,,,,,,org/10.1016/S0143-7208(97)00122-8
1919,8_96,2,FALSE,O=C(C(SCC(O)=O)=C1OC)C2=C(C3=C4C(OC)=C2O)C1=C(C(OC)=C5[H])C(C3=C(C(C(C)=O)C(C)=C4)C(OC)=C6O)=C6C5=O,580,,CHCl3,5010,,,0.38,CHCl3,,,,,,"492, 580",org/10.1016/S0143-7208(97)00122-8
1920,8_97,3,FALSE,O=C(C(SCC(O)=O)=C1OC)C2=C(C3=C4C(OC)=C2O)C1=C(C(OC)=C5SCC(O)=O)C(C3=C(C(C(C)=O)C(C)=C4)C(OC)=C6O)=C6C5=O,516,,CHCl3,7950,,,0.29,CHCl3,,,,,,516,org/10.1016/S0143-7208(97)00122-8
1921,8_98,4,FALSE,O=C(C(SCCCCCCCC)=C1OC)C2=C(C3=C4C(OC)=C2O)C1=C(C(OC)=C5[H])C(C3=C(C(C(C)=O)C(C)=C4)C(OC)=C6O)=C6C5=O,586,,CHCl3,6020,,,0.37,CHCl3,,,,,,"500, 586",org/10.1016/S0143-7208(97)00122-8
1922,8_99,5,FALSE,O=C(C(SCCCCCCCC)=C1OC)C2=C(C3=C4C(OC)=C2O)C1=C(C(OC)=C5SCCCCCCCC)C(C3=C(C(C(C)=O)C(C)=C4)C(OC)=C6O)=C6C5=O,635,,CHCl3,5650,,,0.27,CHCl3,,,,,,"520, 635",org/10.1016/S0143-7208(97)00122-8
1923,8_100,6,FALSE,O=C(C(SCCCCCCCCCCCC)=C1OC)C2=C(C3=C4C(OC)=C2O)C1=C(C(OC)=C5[H])C(C3=C(C(C(C)=O)C(C)=C4)C(OC)=C6O)=C6C5=O,600,,CHCl3,6530,,,0.35,CHCl3,,,,,,"508, 600",org/10.1016/S0143-7208(97)00122-8
1924,8_101,7,FALSE,O=C(C(SCCCCCCCCCCCC)=C1OC)C2=C(C3=C4C(OC)=C2O)C1=C(C(OC)=C5SCCCCCCCCCCCC)C(C3=C(C(C(C)=O)C(C)=C4)C(OC)=C6O)=C6C5=O,655,,CHCl3,6450,,,0.25,CHCl3,,,,,,"535, 655",org/10.1016/S0143-7208(97)00122-8
1925,8_102,8,FALSE,O=C(C(SCCN)=C1OC)C2=C(C3=C4C(OC)=C2O)C1=C(C(OC)=C5[H])C(C3=C(C(C(C)=O)C(C)=C4)C(OC)=C6O)=C6C5=O,515,,CHCl3,8230,,,0.44,CHCl3,,,,,,515,org/10.1016/S0143-7208(97)00122-8
1926,8_103,9,FALSE,OC1=C([H])C(OC)=C2C3=C(OC)C4=C(NCCS4)C5=C3C(C6=C(OC)C5=O)=C7C2=C1C(C(OC)=C7C(C(C)=O)=C(C)C6)=O,652,,CHCl3,13400,,,0.87,CHCl3,,,,,,"532, 596, 652",org/10.1016/S0143-7208(97)00122-8
1927,8_104,HBBA-R2,FALSE,O=C1C2=C3C(C4=C(OC)C=C(NCCCC)C5=C4C(C6=C(OC)C5=O)=C3C(C(C(C)=O)=C(C)C6)=C1OC)=C(OC)C=C2NCCCC,630,,,6190,,,0.32,,,,,,,,org/10.1111/j.1751-1097.1997.tb01915.x
1928,8_105,HBEA-R1,FALSE,O=C(C=C1OC)C2=C(C3=C4C(OC)=C2NCCO)C1=C(C(OC)=C5)C(C3=C(C(C(C)=O)C(C)=C4)C(OC)=C6NCCO)=C6C5=O,630,,,6230,,,0.6,,,,,,,,org/10.1111/j.1751-1097.1997.tb01915.x
1929,8_106,HBDP-R1,FALSE,O=C(C=C1OC)C2=C(C3=C4C(OC)=C2NCCCN(C)C)C1=C(C(OC)=C5)C(C3=C(C(C(C)=O)C(C)=C4)C(OC)=C6NCCCN(C)C)=C6C5=O,630,,,4800,,,0.42,,,,,,,,org/10.1111/j.1751-1097.1997.tb01915.x
1930,8_107,2,FALSE,O=C(C(SCCO)=C1OC)C2=C(C3=C4C(OC)=C2O)C1=C(C(OC)=C5SCCO)C(C3=C(C(C(C)=O)C(C)=C4)C(OC)=C6O)=C6C5=O,580,,CHCl3,10965,,,0.19,DMSO,,,,,,514， 580,org/10.1016/S0040-4039(98)00928-9