,index,name,metal_complex,SMILES,max_absorption_peak,max_emission_peak,solvant_spectrum,molar_extinction_coefficient,quantum_yield_fluorescence,max_phosphorescence_peak,quantum_yield_singlet_oxygen,solvant_quantum_yield,energy_level_exited_triplet_state,energy_level_HUMO,energy_level_LUMO,difference_HOMO_and_LUMO,method_for_HOMO/LUMO,all_absoption_peaks,reference_DOI
746,2_457,BDPI-lyso,FALSE,CC(C(I)=C4C)=[N](C4=C3)[B](F)(F)N1C3=CC(I)=C1SC2=CC=CC=C2NC(CN5CCOCC5)=O,545,572,EtOH,41900,0.05,,0.95,EtOH,,,,,,,10.1039/c9Ob01242
747,2_457,BDPI-lyso,FALSE,CC(C(I)=C4C)=[N](C4=C3)[B](F)(F)N1C3=CC(I)=C1SC2=CC=CC=C2NC(CN5CCOCC5)=O,545,572,EtOH,41900,0.05,,0.51,"EtOH/PBS=1:1,pH=5.1",,,,,,,10.1039/c9Ob01242
748,2_457,BDPI-lyso,FALSE,CC(C(I)=C4C)=[N](C4=C3)[B](F)(F)N1C3=CC(I)=C1SC2=CC=CC=C2NC(CN5CCOCC5)=O,545,572,EtOH,41900,0.05,,0.38,"EtOH/PBS=1:1,pH=7.24",,,,,,,10.1039/c9Ob01242
749,2_458,BDP-1b,FALSE,F[B-]([N+]2=C(C)C=C(C)C2=C3C(F)(F)F)(F)N1C3=C(C)C=C1C,553,622,CHCl3,115700,,,,,,-6.79,-1.91,-4.88,theoretical,,10.1039/c9Ob00030e
750,2_459,BDP-3b,FALSE,F[B-]([N+]3=C(C=CS5)C5=C(C)C3=C4C(F)(F)F)(F)N1C4=C(C)C2=C1C=CS2,623,,THF,72200,,,,,,-6.76,-2.41,-4.35,theoretical,,10.1039/c9Ob00030e
751,2_460,"thieno[3,2-b]thiophene-fused BODIPY derivatives 1",FALSE,F[B-]([N+]3=C(C(SC=C7)=C7S6)C6=CC3=C4C(F)(F)F)(F)N1C4=CC2=C1C5=C(C=CS5)S2,690,693,Hexane,224600,0.21,,,,,-6.56,-2.46,-4.1,theoretical,,10.1039/c9Ob00030e
752,2_460,"thieno[3,2-b]thiophene-fused BODIPY derivatives 1",FALSE,F[B-]([N+]3=C(C(SC=C7)=C7S6)C6=CC3=C4C(F)(F)F)(F)N1C4=CC2=C1C5=C(C=CS5)S2,699,704,Toluene,216300,0.19,,,,,-6.56,-2.46,-4.1,theoretical,,10.1039/c9Ob00030e
753,2_460,"thieno[3,2-b]thiophene-fused BODIPY derivatives 1",FALSE,F[B-]([N+]3=C(C(SC=C7)=C7S6)C6=CC3=C4C(F)(F)F)(F)N1C4=CC2=C1C5=C(C=CS5)S2,695,701,DCM,204500,0.21,,,,,-6.56,-2.46,-4.1,theoretical,,10.1039/c9Ob00030e
754,2_460,"thieno[3,2-b]thiophene-fused BODIPY derivatives 1",FALSE,F[B-]([N+]3=C(C(SC=C7)=C7S6)C6=CC3=C4C(F)(F)F)(F)N1C4=CC2=C1C5=C(C=CS5)S2,694,699,THF,194700,0.13,,,,,-6.56,-2.46,-4.1,theoretical,,10.1039/c9Ob00030e
755,2_460,"thieno[3,2-b]thiophene-fused BODIPY derivatives 1",FALSE,F[B-]([N+]3=C(C(SC=C7)=C7S6)C6=CC3=C4C(F)(F)F)(F)N1C4=CC2=C1C5=C(C=CS5)S2,689,698,MeOH,175800,0.09,,,,,-6.56,-2.46,-4.1,theoretical,,10.1039/c9Ob00030e
756,2_460,"thieno[3,2-b]thiophene-fused BODIPY derivatives 1",FALSE,F[B-]([N+]3=C(C(SC=C7)=C7S6)C6=CC3=C4C(F)(F)F)(F)N1C4=CC2=C1C5=C(C=CS5)S2,688,698,MeCN,174100,0.09,,,,,-6.56,-2.46,-4.1,theoretical,,10.1039/c9Ob00030e
757,2_461,"thieno[3,2-b]thiophene-fused BODIPY derivatives 2",FALSE,F[B-]([N+]3=C(C(SC(I)=C7)=C7S6)C6=CC3=C4C(F)(F)F)(F)N1C4=CC2=C1C5=C(C=C(I)S5)S2,714,716,Hexane,233300,0.03,,,,,-6.67,-2.65,-4.02,theoretical,,10.1039/c9Ob00030e
758,2_461,"thieno[3,2-b]thiophene-fused BODIPY derivatives 2",FALSE,F[B-]([N+]3=C(C(SC(I)=C7)=C7S6)C6=CC3=C4C(F)(F)F)(F)N1C4=CC2=C1C5=C(C=C(I)S5)S2,726,732,Toluene,250400,0.07,,,,,-6.67,-2.65,-4.02,theoretical,,10.1039/c9Ob00030e
759,2_461,"thieno[3,2-b]thiophene-fused BODIPY derivatives 2",FALSE,F[B-]([N+]3=C(C(SC(I)=C7)=C7S6)C6=CC3=C4C(F)(F)F)(F)N1C4=CC2=C1C5=C(C=C(I)S5)S2,720,728,DCM,234900,0.07,,,,,-6.67,-2.65,-4.02,theoretical,,10.1039/c9Ob00030e
760,2_461,"thieno[3,2-b]thiophene-fused BODIPY derivatives 2",FALSE,F[B-]([N+]3=C(C(SC(I)=C7)=C7S6)C6=CC3=C4C(F)(F)F)(F)N1C4=CC2=C1C5=C(C=C(I)S5)S2,721,724,THF,222400,0.04,,,,,-6.67,-2.65,-4.02,theoretical,,10.1039/c9Ob00030e
761,2_461,"thieno[3,2-b]thiophene-fused BODIPY derivatives 2",FALSE,F[B-]([N+]3=C(C(SC(I)=C7)=C7S6)C6=CC3=C4C(F)(F)F)(F)N1C4=CC2=C1C5=C(C=C(I)S5)S2,714,721,MeOH,175800,0.03,,,,,-6.67,-2.65,-4.02,theoretical,,10.1039/c9Ob00030e
762,2_461,"thieno[3,2-b]thiophene-fused BODIPY derivatives 2",FALSE,F[B-]([N+]3=C(C(SC(I)=C7)=C7S6)C6=CC3=C4C(F)(F)F)(F)N1C4=CC2=C1C5=C(C=C(I)S5)S2,713,721,MeCN,213700,0.07,,,,,-6.67,-2.65,-4.02,theoretical,,10.1039/c9Ob00030e
763,2_462,BODIPY sensitizers1,FALSE,[H]C2=C1[N]([B@@](F)(F)N3C2=C(Br)C(Br)=C3[H])=C(C)C(CC)=C1C,488,,air-equilibrated acetonitrile,31300,,,0.9,air-equilibrated acetonitrile,,,,,,,10.1039/c6cp06448e
764,2_463,BODIPY sensitizers2,FALSE,[H]C2=C1[N]([B@@](F)(F)N3C2=C([H])C(Br)=C3Br)=C(C)C(CC)=C1C,509,,air-equilibrated acetonitrile,33100,,,0.6,air-equilibrated acetonitrile,,,,,,,10.1039/c6cp06448e
765,2_464,BODIPY sensitizers3,FALSE,[H]C2=C1[N]([B@@](F)(F)N3C2=C(I)C(I)=C3[H])=C(C)C(CC)=C1C,503,,air-equilibrated acetonitrile,24400,,,0.99,air-equilibrated acetonitrile,,,,,,,10.1039/c6cp06448e
766,2_465,BODIPY sensitizers4,FALSE,[H]C2=C1[N]([B@@](F)(F)N3C2=C([H])C(I)=C3I)=C(C)C(CC)=C1C,521,,air-equilibrated acetonitrile,28800,,,0.6,air-equilibrated acetonitrile,,,,,,,10.1039/c6cp06448e
767,2_466,BODIPY sensitizers5,FALSE,[H]C2=C1[N]([B@@](F)(F)N3C2=C(I)C(I)=C3I)=C(C)C(CC)=C1C,525,,air-equilibrated acetonitrile,33900,,,0.6,air-equilibrated acetonitrile,,,,,,,10.1039/c6cp06448e
768,2_467,BODIPY sensitizers6,FALSE,[H]C3=[N]2C(C([H])=C3Br)=C([4-tolyl])C1=C([H])C(Br)=C([H])N1[B@](F)2F,531,,air-equilibrated acetonitrile,46200,,,0.57,air-equilibrated acetonitrile,,,,,,,10.1039/c6cp06448e
769,2_468,BODIPY sensitizers7,FALSE,BrC3=[N]2C(C([H])=C3[H])=C([4-tolyl])C1=C([H])C([H])=C(Br)N1[B@](F)2F,515,,air-equilibrated acetonitrile,75700,,,0.26,air-equilibrated acetonitrile,,,,,,,10.1039/c6cp06448e
770,2_469,BODIPY sensitizers8,FALSE,BrC3=[N]2C(C([H])=C3Br)=C([4-tolyl])C1=C([H])C(Br)=C(Br)N1[B@](F)2F,546,,air-equilibrated acetonitrile,57300,,,0.58,air-equilibrated acetonitrile,,,,,,,10.1039/c6cp06448e
771,2_470,BODIPY sensitizers9,FALSE,BrC3=[N]2C(C(Br)=C3Br)=C([4-tolyl])C1=C(Br)C(Br)=C(Br)N1[B@](F)2F,544,,air-equilibrated acetonitrile,70500,,,0.47,air-equilibrated acetonitrile,,,,,,,10.1039/c6cp06448e
772,2_471,BODIPY sensitizers10,FALSE,BrC1=C(Br)C(C(C(OCC)=O)C(OCC)=O)=[N]3C1=C([4-tolyl])C2=C(Br)C(Br)=C(C(C(OCC)=O)C(OCC)=O)N2[B@](F)3F,534,,air-equilibrated acetonitrile,23200,,,0.16,air-equilibrated acetonitrile,,,,,,,10.1039/c6cp06448e
773,2_472,BODIPY sensitizers11,FALSE,IC3=[N]2C(C([H])=C3I)=C([4-tolyl])C1=C([H])C(I)=C(C(C(OCC)=O)C(OCC)=O)N1[B@](F)2F,559,,air-equilibrated acetonitrile,39200,,,0.81,air-equilibrated acetonitrile,,,,,,,10.1039/c6cp06448e
774,2_473,BODIPY sensitizers12,FALSE,IC3=[N]2C(C([H])=C3I)=C([4-tolyl])C1=C([H])C(I)=C(NCCC(O)=O)N1[B@](F)2F,497,,air-equilibrated acetonitrile,30800,,,0.77,air-equilibrated acetonitrile,,,,,,,10.1039/c6cp06448e
775,2_474,BODIPY sensitizers13,FALSE,IC3=[N]2C(C([H])=C3I)=C([4-tolyl])C1=C([H])C(I)=C([NH-p-(C6H4)OMe])N1[B@](F)2F,518,,air-equilibrated acetonitrile,14800,,,0.014,air-equilibrated acetonitrile,,,,,,,10.1039/c6cp06448e
776,2_475,BODIPY sensitizers14,FALSE,IC3=[N]2C(C([H])=C3I)=C([4-tolyl])C1=C([H])C(I)=C(I)N1[B@](F)2F,573,,air-equilibrated acetonitrile,43800,,,0.94,air-equilibrated acetonitrile,,,,,,,10.1039/c6cp06448e
777,2_476,Ir-1,TRUE,CC1=CC(/C=C/C5=CC=C(OC)C=C5)=[N]([B](F)(F)N4C3=C(C)C(C#CC6=C[N]([Ir]%10(C%12=C%13C=CC=C%12)([N]%14=C%13C=CC=C%14)8[N]9=CC=CC=C9C%11=C%10C=CC=C%11)=C(C7=[N]8C=CC=C7)C=C6)=C4C)C1=C3C2=CC=CC=C2,606,624,toluene,113800,0.399,,0.53,CH2Cl2,,,,,,,10.1039/c4tb00284a
778,2_476,Ir-1,TRUE,CC1=CC(/C=C/C5=CC=C(OC)C=C5)=[N]([B](F)(F)N4C3=C(C)C(C#CC6=C[N]([Ir]%10(C%12=C%13C=CC=C%12)([N]%14=C%13C=CC=C%14)8[N]9=CC=CC=C9C%11=C%10C=CC=C%11)=C(C7=[N]8C=CC=C7)C=C6)=C4C)C1=C3C2=CC=CC=C2,602,624,dichloromethane,117600,0.047,,0.53,CH2Cl2,,,,,,,10.1039/c4tb00284a
779,2_476,Ir-1,TRUE,CC1=CC(/C=C/C5=CC=C(OC)C=C5)=[N]([B](F)(F)N4C3=C(C)C(C#CC6=C[N]([Ir]%10(C%12=C%13C=CC=C%12)([N]%14=C%13C=CC=C%14)8[N]9=CC=CC=C9C%11=C%10C=CC=C%11)=C(C7=[N]8C=CC=C7)C=C6)=C4C)C1=C3C2=CC=CC=C2,594,615,methanol,118900,0.069,,0.53,CH2Cl2,,,,,,,10.1039/c4tb00284a
780,2_476,Ir-1,TRUE,CC1=CC(/C=C/C5=CC=C(OC)C=C5)=[N]([B](F)(F)N4C3=C(C)C(C#CC6=C[N]([Ir]%10(C%12=C%13C=CC=C%12)([N]%14=C%13C=CC=C%14)8[N]9=CC=CC=C9C%11=C%10C=CC=C%11)=C(C7=[N]8C=CC=C7)C=C6)=C4C)C1=C3C2=CC=CC=C2,593,616,acetonitrile,113300,0.117,,0.53,CH2Cl2,,,,,,,10.1039/c4tb00284a
781,2_477,Ir-2,TRUE,CC1=CC(/C=C/C6=CC=C(OC)C=C6)=[N]([B](F)(F)N4C3=C(C)C(C#CC7=C[N]([Ir]%11(C%13=C%14C=CC=C%13)([N]%15=C%14C=CC=C%15)9[N]%10=CC=CC=C%10C%12=C%11C=CC=C%12)=C(C8=[N]9C=CC=C8)C=C7)=C4/C=C/C5=CC=C(OC)C=C5)C1=C3C2=CC=CC=C2,664,691,toluene,89600,0.132,,0.81,CH2Cl2,,,,,,,10.1039/c4tb00284a
782,2_477,Ir-2,TRUE,CC1=CC(/C=C/C6=CC=C(OC)C=C6)=[N]([B](F)(F)N4C3=C(C)C(C#CC7=C[N]([Ir]%11(C%13=C%14C=CC=C%13)([N]%15=C%14C=CC=C%15)9[N]%10=CC=CC=C%10C%12=C%11C=CC=C%12)=C(C8=[N]9C=CC=C8)C=C7)=C4/C=C/C5=CC=C(OC)C=C5)C1=C3C2=CC=CC=C2,653,678,dichloromethane,98200,0.06,,0.81,CH2Cl2,,,,,,,10.1039/c4tb00284a
783,2_477,Ir-2,TRUE,CC1=CC(/C=C/C6=CC=C(OC)C=C6)=[N]([B](F)(F)N4C3=C(C)C(C#CC7=C[N]([Ir]%11(C%13=C%14C=CC=C%13)([N]%15=C%14C=CC=C%15)9[N]%10=CC=CC=C%10C%12=C%11C=CC=C%12)=C(C8=[N]9C=CC=C8)C=C7)=C4/C=C/C5=CC=C(OC)C=C5)C1=C3C2=CC=CC=C2,647,673,methanol,97900,0.104,,0.81,CH2Cl2,,,,,,,10.1039/c4tb00284a
784,2_477,Ir-2,TRUE,CC1=CC(/C=C/C6=CC=C(OC)C=C6)=[N]([B](F)(F)N4C3=C(C)C(C#CC7=C[N]([Ir]%11(C%13=C%14C=CC=C%13)([N]%15=C%14C=CC=C%15)9[N]%10=CC=CC=C%10C%12=C%11C=CC=C%12)=C(C8=[N]9C=CC=C8)C=C7)=C4/C=C/C5=CC=C(OC)C=C5)C1=C3C2=CC=CC=C2,646,674,acetonitrile,89600,0.138,,0.81,CH2Cl2,,,,,,,10.1039/c4tb00284a
785,2_478,Ir-3,TRUE,CC1=CC(/C=C/C5=CC=C(N(C)C)C=C5)=[N]([B](F)(F)N4C3=C(C)C(C#CC6=C[N]([Ir]%10(C%12=C%13C=CC=C%12)([N]%14=C%13C=CC=C%14)8[N]9=CC=CC=C9C%11=C%10C=CC=C%11)=C(C7=[N]8C=CC=C7)C=C6)=C4C)C1=C3C2=CC=CC=C2,644,683,toluene,98900,0.326,,0.06,CH2Cl2,,,,,,,10.1039/c4tb00284a
786,2_478,Ir-3,TRUE,CC1=CC(/C=C/C5=CC=C(N(C)C)C=C5)=[N]([B](F)(F)N4C3=C(C)C(C#CC6=C[N]([Ir]%10(C%12=C%13C=CC=C%12)([N]%14=C%13C=CC=C%14)8[N]9=CC=CC=C9C%11=C%10C=CC=C%11)=C(C7=[N]8C=CC=C7)C=C6)=C4C)C1=C3C2=CC=CC=C2,645,716,dichloromethane,94900,0.013,,0.06,CH2Cl2,,,,,,,10.1039/c4tb00284a
787,2_478,Ir-3,TRUE,CC1=CC(/C=C/C5=CC=C(N(C)C)C=C5)=[N]([B](F)(F)N4C3=C(C)C(C#CC6=C[N]([Ir]%10(C%12=C%13C=CC=C%12)([N]%14=C%13C=CC=C%14)8[N]9=CC=CC=C9C%11=C%10C=CC=C%11)=C(C7=[N]8C=CC=C7)C=C6)=C4C)C1=C3C2=CC=CC=C2,633,718,methanol,88200,0.006,,0.06,CH2Cl2,,,,,,,10.1039/c4tb00284a
788,2_478,Ir-3,TRUE,CC1=CC(/C=C/C5=CC=C(N(C)C)C=C5)=[N]([B](F)(F)N4C3=C(C)C(C#CC6=C[N]([Ir]%10(C%12=C%13C=CC=C%12)([N]%14=C%13C=CC=C%14)8[N]9=CC=CC=C9C%11=C%10C=CC=C%11)=C(C7=[N]8C=CC=C7)C=C6)=C4C)C1=C3C2=CC=CC=C2,632,736,acetonitrile,89500,0.004,,0.06,CH2Cl2,,,,,,,10.1039/c4tb00284a
789,2_479,Ir-4,TRUE,CC1=CC(/C=C/C6=CC=C(N(C)C)C=C6)=[N]([B](F)(F)N4C3=C(C)C(C#CC7=C[N]([Ir]%11(C%13=C%14C=CC=C%13)([N]%15=C%14C=CC=C%15)9[N]%10=CC=CC=C%10C%12=C%11C=CC=C%12)=C(C8=[N]9C=CC=C8)C=C7)=C4/C=C/C5=CC=C(N(C)C)C=C5)C1=C3C2=CC=CC=C2,729,794,toluene,121100,0.01,,0.02,CH2Cl2,,,,,,,10.1039/c4tb00284a
790,2_479,Ir-4,TRUE,CC1=CC(/C=C/C6=CC=C(N(C)C)C=C6)=[N]([B](F)(F)N4C3=C(C)C(C#CC7=C[N]([Ir]%11(C%13=C%14C=CC=C%13)([N]%15=C%14C=CC=C%15)9[N]%10=CC=CC=C%10C%12=C%11C=CC=C%12)=C(C8=[N]9C=CC=C8)C=C7)=C4/C=C/C5=CC=C(N(C)C)C=C5)C1=C3C2=CC=CC=C2,720,777,dichloromethane,84700,0.002,,0.02,CH2Cl2,,,,,,,10.1039/c4tb00284a
791,2_479,Ir-4,TRUE,CC1=CC(/C=C/C6=CC=C(N(C)C)C=C6)=[N]([B](F)(F)N4C3=C(C)C(C#CC7=C[N]([Ir]%11(C%13=C%14C=CC=C%13)([N]%15=C%14C=CC=C%15)9[N]%10=CC=CC=C%10C%12=C%11C=CC=C%12)=C(C8=[N]9C=CC=C8)C=C7)=C4/C=C/C5=CC=C(N(C)C)C=C5)C1=C3C2=CC=CC=C2,710,787,methanol,84300,0.0023,,0.02,CH2Cl2,,,,,,,10.1039/c4tb00284a
792,2_479,Ir-4,TRUE,CC1=CC(/C=C/C6=CC=C(N(C)C)C=C6)=[N]([B](F)(F)N4C3=C(C)C(C#CC7=C[N]([Ir]%11(C%13=C%14C=CC=C%13)([N]%15=C%14C=CC=C%15)9[N]%10=CC=CC=C%10C%12=C%11C=CC=C%12)=C(C8=[N]9C=CC=C8)C=C7)=C4/C=C/C5=CC=C(N(C)C)C=C5)C1=C3C2=CC=CC=C2,714,800,acetonitrile,78800,0.0018,,0.02,CH2Cl2,,,,,,,10.1039/c4tb00284a
793,2_480,1BDPC,FALSE,CC1=C(I)C(C)=C3N1[B](F)(F)[N]2=C(/C=C/C5=CC=C(N(CC#C)C7=C6C=CC=C7)C6=C5)C(I)=C(C)C2=C3C4=CC=C(O)C=C4,611,645,MeOH,71162,,,0.6,MeOH,,,,,,,10.1016/j.dyepig.2022.110255
794,2_481,1BDPC-TPP,FALSE,CC1=C(I)C(C)=C3N1[B](F)(F)[N]2=C(/C=C/C5=CC=C(N(CC8=CN(CCCC[P+](C%10=CC=CC=C%10)(C%11=CC=CC=C%11)C9=CC=CC=C9)N=N8)C7=C6C=CC=C7)C6=C5)C(I)=C(C)C2=C3C4=CC=C(O)C=C4,612,646,MeOH,51382,,,0.54,MeOH,,,,,,,10.1016/j.dyepig.2022.110255
795,2_482,1BDPC-Py,FALSE,CC1=C(I)C(C)=C3N1[B](F)(F)[N]2=C(/C=C/C5=CC=C(N(CC8=CN(CCCC[N+]9=CC=CC=C9)N=N8)C7=C6C=CC=C7)C6=C5)C(I)=C(C)C2=C3C4=CC=C(O)C=C4,610,645,MeOH,49522,,,0.58,MeOH,,,,,,,10.1016/j.dyepig.2022.110255
796,2_483,IBDP-Lys,FALSE,CC1=C(I)C(C)=C3N1[B](F)(F)[N]2=C(C)C=C(C)C2=C3C4=CN(CCN6CCOCC6)C5=C4C=CC=C5,515,534,EtOH,68000,0.0037,,0.431,EtOH,,,,,,,10.1039/d1nj03628a
797,2_484,I2BDP-Lys,FALSE,CC1=C(I)C(C)=C3N1[B](F)(F)[N]2=C(C)C(I)=C(C)C2=C3C4=CN(CCN6CCOCC6)C5=C4C=CC=C5,531,555,EtOH,61000,0.0074,,0.71,EtOH,,,,,,,10.1039/d1nj03628a
798,2_485,BDPY-DBPMB,FALSE,IC3=C(/C=C/C8=CC=C(OCC%10=CC=CC=N%10)C(OCC9=NC=CC=C9)=C8)N2[B](F)(F)[N]1=C(/C=C/C4=CC(OCC6=CC=CC=N6)=C(OCC7=NC=CC=C7)C=C4)C(I)=C(C)C1=C(C5=CC=CC=C5)C2=C3C,671,708,DMSO,9400,,,0.51,DMSO,,,,,,,"10.1007/s12039-021-01934-1Sadhana(0123456789().,-volV)FT3](0123456789().,-volV)"
799,2_486,NBDPY-DBPMB,FALSE,IC3=C(/C=C/C8=CC=C(OCC%10=CC=CC=N%10)C(OCC9=NC=CC=C9)=C8)N2[B](F)(F)[N]1=C(/C=C/C4=CC(OCC6=CC=CC=N6)=C(OCC7=NC=CC=C7)C=C4)C(I)=C(C)C1=C(C5=CC=C([N+]([O-])=O)C=C5)C2=C3C,682,724,DMSO,12200,,,0.41,DMSO,,,,,,,"10.1007/s12039-021-01934-1Sadhana(0123456789().,-volV)FT3](0123456789().,-volV)"
800,2_460,"halogenated thieno[3,2-b]thiophene fused BODIPY1",FALSE,F[B-]([N+]3=C(C(SC=C7)=C7S6)C6=CC3=C4C(F)(F)F)(F)N1C4=CC2=C1C5=C(C=CS5)S2,695,701,dichloromethane,204500,0.21,,,,,-5.8,-3.69,-2.11,theoretical,,10.1016/j.saa.2020.119027
801,2_461,"halogenated thieno[3,2-b]thiophene fused BODIPY 2",FALSE,F[B-]([N+]3=C(C(SC(I)=C7)=C7S6)C6=CC3=C4C(F)(F)F)(F)N1C4=CC2=C1C5=C(C=C(I)S5)S2,720,728,dichloromethane,234900,0.07,,,,,-6.03,-4.04,-1.99,theoretical,,10.1016/j.saa.2020.119027
802,2_489,"halogenated thieno[3,2-b]thiophene fused BODIPY 3",FALSE,F[B-]([N+]3=C(C(SC(Br)=C7)=C7S6)C6=C(Br)C3=C4C(F)(F)F)(F)N1C4=C(Br)C2=C1C5=C(C=C(Br)S5)S2,750,777,dichloromethane,117700,0.01,,,,,-6.02,-4.07,-1.95,theoretical,,10.1016/j.saa.2020.119027
803,2_490,BDP-1,FALSE,CC3=[N]2[C@@]([C@]4=C3CCC5=[C@]4C=CC=C5)=CC1=[C@]6C(CCC7=[C@]6C=CC=C7)=C(C)N1[B](F)2F,564,572,DCM,121000,0.31,,0.55,ACN,,,,,,,10.1039/d1cp00948f
804,2_491,BDP-2,FALSE,CC3=[N]2C(C(C)=C3I)=C(C4=CC=CC=C4)C1=C(C)C(I)=C(C)N1[B](F)2F,533,552,DCM,7500,0.027,,0.92,ACN,,,,,,,10.1039/d1cp00948f
805,2_492,BDP-3b,FALSE,IC3=C(/C=C/C5=CC=CC=C5)N2[B](F)(F)[N]1=C(/C=C/C4=CC=CC=C4)C(I)=C(C)C1=C(C6=CC=CC=C6)C2=C3C,638,657,DCM,8500,0.1,,0.62,ACN,,,,,,,10.1039/d1cp00948f
806,2_493,BODIPYs 2a,FALSE,CC1=CC(C)=C3N1[B](F)(F)[N]2=C(C)C=C(C)C2=C3C4=CC=C(OCCCCCN5C(C(C=CC=C6)=C6C5=O)=O)C=C4,498,507,MeOH,58884.36554,0.52,,0.036,MeOH,,,,,,,10.3390/molecules26144194
807,2_494,BODIPYs 3a,FALSE,CC1=C(I)C(C)=C3N1[B](F)(F)[N]2=C(C)C(I)=C(C)C2=C3C4=CC=C(OCCCCCN5C(C(C=CC=C6)=C6C5=O)=O)C=C4,530,546,MeOH,22908.67653,0.022,,0.77,MeOH,,,,,,,10.3390/molecules26144194
808,2_495,BODIPYs 4a,FALSE,CC1=C(Br)C(C)=C3N1[B](F)(F)[N]2=C(C)C(Br)=C(C)C2=C3C4=CC=C(OCCCCCN5C(C(C=CC=C6)=C6C5=O)=O)C=C4,525,540,MeOH,52480.74602,0.21,,0.57,MeOH,,,,,,,10.3390/molecules26144194
809,2_496,BODIPYs 5a,FALSE,CC1=CC(C)=C3N1[B](F)(F)[N]2=C(C)C=C(C)C2=C3C4=CC=C(OCCCCCN)C=C4,498,507,MeOH,79432.82347,0.43,,0.063,MeOH,,,,,,,10.3390/molecules26144194
810,2_497,BODIPYs 2b,FALSE,CC1=CC(C)=C3N1[B](F)(F)[N]2=C(C)C=C(C)C2=C3C4=CC=C(OCCCCCCCCN5C(C(C=CC=C6)=C6C5=O)=O)C=C4,498,507,MeOH,91201.08394,0.44,,0.057,MeOH,,,,,,,10.3390/molecules26144194
811,2_498,BODIPYs 3b,FALSE,CC1=C(I)C(C)=C3N1[B](F)(F)[N]2=C(C)C(I)=C(C)C2=C3C4=CC=C(OCCCCCCCCN5C(C(C=CC=C6)=C6C5=O)=O)C=C4,530,547,MeOH,5011.872336,0.03,,0.75,MeOH,,,,,,,10.3390/molecules26144194
812,2_499,BODIPYs 4b,FALSE,CC1=C(Br)C(C)=C3N1[B](F)(F)[N]2=C(C)C(Br)=C(C)C2=C3C4=CC=C(OCCCCCCCCN5C(C(C=CC=C6)=C6C5=O)=O)C=C4,523,538,MeOH,10964.78196,0.23,,0.56,MeOH,,,,,,,10.3390/molecules26144194
813,2_500,BODIPYs 5b,FALSE,CC1=CC(C)=C3N1[B](F)(F)[N]2=C(C)C=C(C)C2=C3C4=CC=C(OCCCCCCCCN)C=C4,498,507,MeOH,10000,0.5,,0.071,MeOH,,,,,,,10.3390/molecules26144194
814,2_501,RB1,TRUE,IC2=CC1=C(C4=C(C(O[Na])=O)C(Cl)=C(Cl)C(Cl)=C4Cl)C(C=C(I)C(O[Na])=C3)=C3OC1=CC2=O,555,579,ACN,,0.12,,0.52,ACN,,,,,,,10.1039/c7cp01333g
815,2_502,BDP1,FALSE,CC3=[N]2C(C=C3I)=C([Ph]C(O)=O)C1=CC(I)=C(C)N1[B](F)2F,550,578,ACN,,0.03,,0.66,ACN,,,,,,,10.1039/c7cp01333g
816,2_503,BDP2,FALSE,CC3=[N]2C(C=C3I)=C(NCCC[Si](CC)(CC)(CC)=O)C1=CC(I)=C(C)N1[B](F)2F,426,484,THF,,0.02,,0.78,ACN,,,,,,,10.1039/c7cp01333g
817,2_504,BODIY2,FALSE,CC4=C2N(C(C)=C4)[B]([N]1=C(C)C=C(C)C1=C2C3=C(OC)C=CC(OC)=C3)(F)F,504,517,n-hexane,,0.971,,0.026,n-hexane,,,,,,,10.1016/j.jlumin.2017.10.018
818,2_504,BODIY2,FALSE,CC4=C2N(C(C)=C4)[B]([N]1=C(C)C=C(C)C1=C2C3=C(OC)C=CC(OC)=C3)(F)F,499,513,EtOAc,,0.499,,0.178,EtOAc,,,,,,,10.1016/j.jlumin.2017.10.018
819,2_504,BODIY2,FALSE,CC4=C2N(C(C)=C4)[B]([N]1=C(C)C=C(C)C1=C2C3=C(OC)C=CC(OC)=C3)(F)F,503,514,THF,,0.457,,0.462,THF,,,,,,,10.1016/j.jlumin.2017.10.018
820,2_504,BODIY2,FALSE,CC4=C2N(C(C)=C4)[B]([N]1=C(C)C=C(C)C1=C2C3=C(OC)C=CC(OC)=C3)(F)F,500,514,Pinacolone,,0.481,,0.68,Pinacolone,,,,,,,10.1016/j.jlumin.2017.10.018
821,2_504,BODIY2,FALSE,CC4=C2N(C(C)=C4)[B]([N]1=C(C)C=C(C)C1=C2C3=C(OC)C=CC(OC)=C3)(F)F,500,511,Acetone,,0.059,,0.25,Acetone,,,,,,,10.1016/j.jlumin.2017.10.018
822,2_504,BODIY2,FALSE,CC4=C2N(C(C)=C4)[B]([N]1=C(C)C=C(C)C1=C2C3=C(OC)C=CC(OC)=C3)(F)F,501,514,MeOH,,0.037,,0.023,MeOH,,,,,,,10.1016/j.jlumin.2017.10.018
823,2_504,BODIY2,FALSE,CC4=C2N(C(C)=C4)[B]([N]1=C(C)C=C(C)C1=C2C3=C(OC)C=CC(OC)=C3)(F)F,499,510,CH3CN,,0.01,,0.125,CH3CN,,,,,,,10.1016/j.jlumin.2017.10.018
824,2_505,BODIY3,FALSE,CC4=C2N(C(C)=C4)[B]([N]1=C(C)C=C(C)C1=C2C3=C(OC)C=C(OC)C(OC)=C3)(F)F,504,518,n-hexane,,0.863,,0.114,n-hexane,,,,,,,10.1016/j.jlumin.2017.10.018
825,2_505,BODIY3,FALSE,CC4=C2N(C(C)=C4)[B]([N]1=C(C)C=C(C)C1=C2C3=C(OC)C=C(OC)C(OC)=C3)(F)F,501,510,EtOAc,,0.004,,0.291,EtOAc,,,,,,,10.1016/j.jlumin.2017.10.018
826,2_505,BODIY3,FALSE,CC4=C2N(C(C)=C4)[B]([N]1=C(C)C=C(C)C1=C2C3=C(OC)C=C(OC)C(OC)=C3)(F)F,503,514,THF,,0.005,,0.357,THF,,,,,,,10.1016/j.jlumin.2017.10.018
827,2_505,BODIY3,FALSE,CC4=C2N(C(C)=C4)[B]([N]1=C(C)C=C(C)C1=C2C3=C(OC)C=C(OC)C(OC)=C3)(F)F,502,517,Pinacolone,,0.004,,0.392,Pinacolone,,,,,,,10.1016/j.jlumin.2017.10.018
828,2_505,BODIY3,FALSE,CC4=C2N(C(C)=C4)[B]([N]1=C(C)C=C(C)C1=C2C3=C(OC)C=C(OC)C(OC)=C3)(F)F,499,511,Acetone,,0.003,,0.068,Acetone,,,,,,,10.1016/j.jlumin.2017.10.018
829,2_505,BODIY3,FALSE,CC4=C2N(C(C)=C4)[B]([N]1=C(C)C=C(C)C1=C2C3=C(OC)C=C(OC)C(OC)=C3)(F)F,501,511,MeOH,,0.003,,0.004,MeOH,,,,,,,10.1016/j.jlumin.2017.10.018
830,2_505,BODIY3,FALSE,CC4=C2N(C(C)=C4)[B]([N]1=C(C)C=C(C)C1=C2C3=C(OC)C=C(OC)C(OC)=C3)(F)F,500,510,CH3CN,,0.001,,0.033,CH3CN,,,,,,,10.1016/j.jlumin.2017.10.018
831,2_506,BODIY4,FALSE,CC4=C2N(C(C)=C4)[B]([N]1=C(C)C=C(C)C1=C2C3=C(C=CC=C5)C5=C(OC)C=C3)(F)F,503,515,n-hexane,,0.906,,0.011,n-hexane,,,,,,,10.1016/j.jlumin.2017.10.018
832,2_506,BODIY4,FALSE,CC4=C2N(C(C)=C4)[B]([N]1=C(C)C=C(C)C1=C2C3=C(C=CC=C5)C5=C(OC)C=C3)(F)F,502,512,EtOAc,,0.411,,0.165,EtOAc,,,,,,,10.1016/j.jlumin.2017.10.018
833,2_506,BODIY4,FALSE,CC4=C2N(C(C)=C4)[B]([N]1=C(C)C=C(C)C1=C2C3=C(C=CC=C5)C5=C(OC)C=C3)(F)F,503,514,THF,,0.438,,0.232,THF,,,,,,,10.1016/j.jlumin.2017.10.018
834,2_506,BODIY4,FALSE,CC4=C2N(C(C)=C4)[B]([N]1=C(C)C=C(C)C1=C2C3=C(C=CC=C5)C5=C(OC)C=C3)(F)F,502,513,Pinacolone,,0.479,,0.46,Pinacolone,,,,,,,10.1016/j.jlumin.2017.10.018
835,2_506,BODIY4,FALSE,CC4=C2N(C(C)=C4)[B]([N]1=C(C)C=C(C)C1=C2C3=C(C=CC=C5)C5=C(OC)C=C3)(F)F,502,512,Acetone,,0.389,,0.471,Acetone,,,,,,,10.1016/j.jlumin.2017.10.018
836,2_506,BODIY4,FALSE,CC4=C2N(C(C)=C4)[B]([N]1=C(C)C=C(C)C1=C2C3=C(C=CC=C5)C5=C(OC)C=C3)(F)F,502,517,MeOH,,0.648,,0.274,MeOH,,,,,,,10.1016/j.jlumin.2017.10.018
837,2_506,BODIY4,FALSE,CC4=C2N(C(C)=C4)[B]([N]1=C(C)C=C(C)C1=C2C3=C(C=CC=C5)C5=C(OC)C=C3)(F)F,499,512,CH3CN,,0.123,,0.872,CH3CN,,,,,,,10.1016/j.jlumin.2017.10.018
838,2_507,BODIY5,FALSE,CC4=C2N(C(C)=C4)[B]([N]1=C(C)C=C(C)C1=C2C3=CC(C=CC(O)=C5)=C5C=C3)(F)F,500,511,n-hexane,,0.637,,0.047,n-hexane,,,,,,,10.1016/j.jlumin.2017.10.018
839,2_507,BODIY5,FALSE,CC4=C2N(C(C)=C4)[B]([N]1=C(C)C=C(C)C1=C2C3=CC(C=CC(O)=C5)=C5C=C3)(F)F,498,510,EtOAc,,0.695,,0.104,EtOAc,,,,,,,10.1016/j.jlumin.2017.10.018