,index,name,metal_complex,SMILES,max_absorption_peak,max_emission_peak,solvant_spectrum,molar_extinction_coefficient,quantum_yield_fluorescence,max_phosphorescence_peak,quantum_yield_singlet_oxygen,solvant_quantum_yield,energy_level_exited_triplet_state,energy_level_HUMO,energy_level_LUMO,difference_HOMO_and_LUMO,method_for_HOMO/LUMO,all_absoption_peaks,reference_DOI
2032,9_34,HBCD,FALSE,O[C@@H]1[C@H]([C@@](O[C@]2([H])[C@@H](CO)O[C@@](O[C@]3([H])[C@@H](CNCCNC(CSC4=C(OC)C(C(C5=C6C(OC)=C7O)=C7C4=O)=C(C(OC)=C8)C(C5=C(C(C(C)=O)=C(C)C6)C(OC)=C9O)=C9C8=O)=O)O[C@@]%10([H])[C@H](O)[C@H]3O)([H])[C@@H]([C@H]2O)O)(O[C@H](CO)[C@]1(O[C@](O%11)([H])[C@H](O)C(O)[C@@](O[C@@]%12([H])O[C@H](CO)[C@@]([C@H](O)[C@H]%12O)([H])O[C@@]%13([H])O[C@@H]([C@](O[C@]%14([H])[C@H](O)[C@@H](O)[C@@](O%10)([H])[C@@H](CO)O%14)([H])[C@H](O)[C@H]%13O)CO)([H])[C@H]%11CO)[H])[H])O,455,,DMSO:PBS7=1:1,,,,0.22,DMSO,,,,,,455,10.1039/b202439j
2033,9_35,"[Al (5,8-di-Br-HB)Cl ] ",TRUE,CC(C1)=C(C(C)=O)C2=C(OC)C3=[O+][Al-]([Cl+][Al-]4(Cl)OC5=CC(OC)=C6C7=C(OC)C=C8C9=C7C(C%10=C(OC)C9=[O+]%11)=C%12C6=C5C(C(OC)=C%12C(C(C)=O)=C(C)C%10)=[O+]4)([Cl+][Al-]%13(Cl)OC%14=CC(OC)=C%15C%16=C%14C%17=[O+]%13)OC%18=C(Br)C(OC)=C%19C%20=C(OC)C(Br)=C%21C%22=C%20C(C1=C(OC)C%22=[O+][Al-]([Cl+][Al-]%23(Cl)OC%24=CC(OC)=C%15C(C(C%25=C%26OC)=C%16C(C(C(C)=O)=C(C)C%25)=C%17OC)=C%24C%26=[O+]%23)([Cl+][Al-]%11(Cl)O8)O%21)=C2C%19=C%183,540,,DMSO,,,,,,,,,,,"540, 640",10.1016/S1011-1344(01)00175-0
2034,9_36,Al3+-HB,TRUE,CC(C1)=C(C(C)=O)C(C2=C(C1=C(OC)C3=[O+][Al-](C)([C+])O4)C5=C3C4=CC(OC)=C5C6=C(OC)C=C(OC)C7=C62)=C(OC)C7=[O+][C-],503,621,DMSO,,0.0023,,0.23,DMSO,,,,,,"503, 568, 614",10.1039/b102011k
2035,9_37,Mg2+–HA,TRUE,CC(C1)(O)C(C(C)=O)C(C2=C(C1=C(OC)C3=[O][Mg](C)(C)O4)C5=C3C4=CC(OC)=C5C6=C(OC)C=C(OC)C7=C62)=C(OC)C7=[O]C,465,,toluene,,,,,,,,,,,"465, 542, 582",10.1039/b803184c
2036,9_37,Mg2+–HA,TRUE,CC(C1)(O)C(C(C)=O)C(C2=C(C1=C(OC)C3=[O][Mg](C)(C)O4)C5=C3C4=CC(OC)=C5C6=C(OC)C=C(OC)C7=C62)=C(OC)C7=[O]C,498,605,DMSO,,,,,,,,,,,"498, 580, 624",10.1039/b803184c
2037,9_37,Mg2+–HA,TRUE,CC(C1)(O)C(C(C)=O)C(C2=C(C1=C(OC)C3=[O][Mg](C)(C)O4)C5=C3C4=CC(OC)=C5C6=C(OC)C=C(OC)C7=C62)=C(OC)C7=[O]C,480,,ethanol,,,,,,,,,,,"480, 575, 610",10.1039/b803184c
2038,9_39,HA-Zn2+,TRUE,CC(C1)(O)C(C(C)=O)C(C2=C(C1=C(OC)C3=[O][Zn+2](C)(C)O4)C5=C3C4=CC(OC)=C5C6=C(OC)C=C(OC)C/7=C62)=C(OC)C7=[O]\C,480,625,ethanol,,,,,,,,,,,"480, 605",10.1039/c0an00431f
2039,9_40,[Cu2(HB)(bpy)2](PF6)2,TRUE,CC(C1)=C(C(C)=O)C2=C(OC)C3=[O+][Cu-2]4([N+]5=CC=CC=C5C6=CC=CC=[N+]64)OC7=CC(OC)=C8C9=C(OC)C=C%10C%11=C9C(C1=C(OC)C%11=[O+][Cu-2]%12([N+]%13=C(C%14=[N+]%12C=CC=C%14)C=CC=C%13)O%10)=C2C8=C73.FP(F)(F)(F)F.FP(F)(F)(F)F.[F-].[F-],490,,CH3CN,39300,,,,,,,,,,"490, 562, 603",10.1021/ic101391x
2040,9_41,[Cu2(HB)(phen)2](PF6)2,TRUE,CC(C1)=C(C(C)=O)C2=C(OC)C3=[O+][Cu-2]4([N+]5=C6C(C=CC7=C6[N+]4=CC=C7)=CC=C5)OC8=CC(OC)=C9C%10=C(OC)C=C(O%11)C%12=C%10C(C1=C(OC)C%12=[O+][Cu-2]%13%11[N+]%14=C%15C%16=C(C=CC%15=CC=C%14)C=CC=[N+]%16%13)=C2C9=C83.FP(F)(F)(F)F.FP(F)(F)(F)F.[F-].[F-],491,,CH3CN,41000,,,,,,,,,,"491, 562, 603",10.1021/ic101391x
2041,9_42,[Cu2(HB)(tmp)2](PF6)2,TRUE,CC(C1)=C(C(C)=O)C2=C(OC)C3=[O+][Cu-2]4([N+]5=C6C(C=CC7=C6[N+]4=CC(C)=C7C)=C(C)C(C)=C5)OC8=CC(OC)=C9C%10=C(OC)C=C(O%11)C%12=C%10C(C1=C(OC)C%12=[O+][Cu-2]%13%11[N+]%14=C%15C%16=C(C=CC%15=C(C)C(C)=C%14)C(C)=C(C)C=[N+]%16%13)=C2C9=C83.FP(F)(F)(F)F.FP(F)(F)(F)F.[F-].[F-],492,,CH3CN,41850,,,,,,,,,,"492, 563, 603",10.1021/ic101391x
2042,9_43,[Cu2(HB)(dpq)2](PF6)2,TRUE,CC(C1)=C(C(C)=O)C2=C(OC)C3=[O+][Cu-2]4([N+]5=C6C(C(N=CC=N7)=C7C8=C6[N+]4=CC=C8)=CC=C5)OC9=CC(OC)=C%10C%11=C(OC)C=C(O%12)C%13=C%11C(C1=C(OC)C%13=[O+][Cu-3]%14%12[N+]%15=C%16C%17=C(C(N=CC=N%18)=C%18C%16=CC=C%15)C=CC=[N+]%17%14)=C2C%10=C93.FP(F)(F)(F)F.FP(F)(F)(F)F.[F-].[F-],492,,CH3CN,41650,,,,,,,,,,"492, 563, 603",10.1021/ic101391x
2043,9_44,[Cu2(HB)(dppz)2](PF6)2,TRUE,CC(CC1=C2OC)=C(C3=C(C4=[O+][Cu-2]5(OC6=CC(OC)=C7C8=C(C=C9O[Cu-3]%10([N+]%11=C%12C%13=C(C=CC=[N+]%13%10)C%14=C(C%12=CC=C%11)N=C(C=CC=C%15)C%15=N%14)[O+]=C2C9=C8C1=C3C7=C64)OC)[N+]%16=C%17C(C%18=C(C%19=C%17[N+]5=CC=C%19)N=C%20C(C=CC=C%20)=N%18)=CC=C%16)OC)C(C)=O.FP(F)(F)(F)F.FP(F)(F)(F)F.[F-].[F-],530,,CH3CN,41350,,,,,,,,,,"530, 623",10.1021/ic101391x
2044,9_45,HB-La3+,TRUE,CC(C1)=C(C(C)=O)C(C2=C(C1=C(OC)C3=[O][La+3](C)(C)O4)C5=C3C4=CC(OC)=C5C6=C(OC)C=C(OC)C7=C62)=C(OC)C7=[O]C,484,650,ethanol,,,,0.62,ethanol,,,,,,"484, 571, 614",10.1088/1464-4258/10/10/104026
2045,9_45,HB-La3+,TRUE,CC(C1)=C(C(C)=O)C(C2=C(C1=C(OC)C3=[O][La+3](C)(C)O4)C5=C3C4=CC(OC)=C5C6=C(OC)C=C(OC)C7=C62)=C(OC)C7=[O]C,470,660,DMSO,,,,0.33,DMSO,,,,,,"470, 552, 598",10.1088/1464-4258/10/10/104026
2046,9_46,HB-Eu3+,TRUE,CC(C1)=C(C(C)=O)C(C2=C(C1=C(OC)C3=[O][Eu+3](C)(C)O4)C5=C3C4=CC(OC)=C5C6=C(OC)C=C(OC)C7=C62)=C(OC)C7=[O]C,484,654,ethanol,,,,0.03,ethanol,,,,,,"484, 571, 614",10.1088/1464-4258/10/10/104026
2047,9_46,HB-Eu3+,TRUE,CC(C1)=C(C(C)=O)C(C2=C(C1=C(OC)C3=[O][Eu+3](C)(C)O4)C5=C3C4=CC(OC)=C5C6=C(OC)C=C(OC)C7=C62)=C(OC)C7=[O]C,470,658.5,DMSO,,,,0.3,DMSO,,,,,,"470, 552, 598",10.1088/1464-4258/10/10/104026
2048,9_47,HB-Tb3+,TRUE,CC(C1)=C(C(C)=O)C(C2=C(C1=C(OC)C3=[O][Tb+3](C)(C)O4)C5=C3C4=CC(OC)=C5C6=C(OC)C=C(OC)C7=C62)=C(OC)C7=[O]C,466,648,ethanol,,,,0.42,ethanol,,,,,,"466, 566, 600",10.1088/1464-4258/10/10/104026
2049,9_47,HB-Tb3+,TRUE,CC(C1)=C(C(C)=O)C(C2=C(C1=C(OC)C3=[O][Tb+3](C)(C)O4)C5=C3C4=CC(OC)=C5C6=C(OC)C=C(OC)C7=C62)=C(OC)C7=[O]C,473,663,DMSO,,,,0.14,DMSO,,,,,,"473, 563,608",10.1088/1464-4258/10/10/104026
2050,9_48,Sc3+-HA,TRUE,CC(C1)(O)C(C(C)=O)C(C2=C(C1=C(OC)C3=[O][Sc+3](C)(C)O4)C5=C3C4=CC(OC)=C5C6=C(OC)C=C(OC)C7=C62)=C(OC)C7=[O]C,,630,DMSO,,,,,,,,,,,,10.1021/jp067020t
2051,9_49,Y3+-HA,TRUE,CC(C1)(O)C(C(C)=O)C(C2=C(C1=C(OC)C3=[O][Y+3](C)(C)O4)C5=C3C4=CC(OC)=C5C6=C(OC)C=C(OC)C7=C62)=C(OC)C7=[O]C,,641,DMSO,,,,,,,,,,,,10.1021/jp067020t
2052,9_50,La3+-HA,TRUE,CC(C1)(O)C(C(C)=O)C(C2=C(C1=C(OC)C3=[O][La+3](C)(C)O4)C5=C3C4=CC(OC)=C5C6=C(OC)C=C(OC)C7=C62)=C(OC)C7=[O]C,,637,DMSO,,,,,,,,,,,,10.1021/jp067020t
2053,9_50,La3+-HA,TRUE,CC(C1)(O)C(C(C)=O)C(C2=C(C1=C(OC)C3=[O][La+3](C)(C)O4)C5=C3C4=CC(OC)=C5C6=C(OC)C=C(OC)C7=C62)=C(OC)C7=[O]C,493,,DMSO,,,,,,,,,,,"493, 580, 627",10.1021/jp0522563
2054,9_51,Ce3+-HA,TRUE,CC(C1)(O)C(C(C)=O)C(C2=C(C1=C(OC)C3=[O][Ce+3]4([Cl][Ce+3](C)(C)[Cl]4)O5)C6=C3C5=CC(OC)=C6C7=C(OC)C=C(OC)C8=C72)=C(OC)C8=[O]C,,,DMSO,,,,,,,,,,,,10.1021/jp067020t
2055,9_52,Pr3+-HA,TRUE,CC(C1)(O)C(C(C)=O)C(C2=C(C1=C(OC)C3=[O][Pr+3]4([Cl][Pr+3](C)(C)[Cl]4)O5)C6=C3C5=CC(OC)=C6C7=C(OC)C=C(OC)C8=C72)=C(OC)C8=[O]C,,,DMSO,,,,,,,,,,,,10.1021/jp067020t
2056,9_53,Nd3+-HA,TRUE,CC(C1)(O)C(C(C)=O)C(C2=C(C1=C(OC)C3=[O][Nd+3]4([Cl][Nd+3](C)(C)[Cl]4)O5)C6=C3C5=CC(OC)=C6C7=C(OC)C=C(OC)C8=C72)=C(OC)C8=[O]C,,,DMSO,,,,,,,,,,,,10.1021/jp067020t
2057,9_54,Sm3+-HA,TRUE,CC(C1)(O)C(C(C)=O)C(C2=C(C1=C(OC)C3=[O][Sm+3]4([Cl][Sm+3](C)(C)[Cl]4)O5)C6=C3C5=CC(OC)=C6C7=C(OC)C=C(OC)C8=C72)=C(OC)C8=[O]C,,,DMSO,,,,,,,,,,,,10.1021/jp067020t
2058,9_55,Eu3+-HA,TRUE,CC(C1)(O)C(C(C)=O)C(C2=C(C1=C(OC)C3=[O][Eu+3]4([Cl][Eu+3](C)(C)[Cl]4)O5)C6=C3C5=CC(OC)=C6C7=C(OC)C=C(OC)C8=C72)=C(OC)C8=[O]C,,,DMSO,,,,,,,,,,,,10.1021/jp067020t
2059,9_56,Gd3+-HA,TRUE,CC(C1)(O)C(C(C)=O)C(C2=C(C1=C(OC)C3=[O][Gd+3](C)(C)O4)C5=C3C4=CC(OC)=C5C6=C(OC)C=C(OC)C7=C62)=C(OC)C7=[O]C,495,635,DMSO,,,,,,,,,,,"495, 575, 625",10.1021/jp067020t
2060,9_56,Gd3+-HA,TRUE,CC(C1)(O)C(C(C)=O)C(C2=C(C1=C(OC)C3=[O][Gd+3](C)(C)O4)C5=C3C4=CC(OC)=C5C6=C(OC)C=C(OC)C7=C62)=C(OC)C7=[O]C,489,,ethanol,,,,,,,,,,,"489, 577, 625",10.1021/jp067020t
2061,9_56,Gd3+-HA,TRUE,CC(C1)(O)C(C(C)=O)C(C2=C(C1=C(OC)C3=[O][Gd+3](C)(C)O4)C5=C3C4=CC(OC)=C5C6=C(OC)C=C(OC)C7=C62)=C(OC)C7=[O]C,,,,,,,,,,,,,,,10.1021/jp067020t
2062,9_57,Tb3+-HA,TRUE,CC(C1)(O)C(C(C)=O)C(C2=C(C1=C(OC)C3=[O][Tb+3]4([Cl][Tb+3](C)(C)[Cl]4)O5)C6=C3C5=CC(OC)=C6C7=C(OC)C=C(OC)C8=C72)=C(OC)C8=[O]C,,631,DMSO,,,,,,,,,,,,10.1021/jp067020t
2063,9_58,Dy3+-HA,TRUE,CC(C1)(O)C(C(C)=O)C(C2=C(C1=C(OC)C3=[O][Dy+3]4([Cl][Dy+3](C)(C)[Cl]4)O5)C6=C3C5=CC(OC)=C6C7=C(OC)C=C(OC)C8=C72)=C(OC)C8=[O]C,,,DMSO,,,,,,,,,,,,10.1021/jp067020t
2064,9_59,Ho3+-HA,TRUE,CC(C1)(O)C(C(C)=O)C(C2=C(C1=C(OC)C3=[O][Ho+3]4([Cl][Ho+3](C)(C)[Cl]4)O5)C6=C3C5=CC(OC)=C6C7=C(OC)C=C(OC)C8=C72)=C(OC)C8=[O]C,,,DMSO,,,,,,,,,,,,10.1021/jp067020t
2065,9_60,Er3+-HA,TRUE,CC(C1)(O)C(C(C)=O)C(C2=C(C1=C(OC)C3=[O][Er+3]4([Cl][Er+3](C)(C)[Cl]4)O5)C6=C3C5=CC(OC)=C6C7=C(OC)C=C(OC)C8=C72)=C(OC)C8=[O]C,,,DMSO,,,,,,,,,,,,10.1021/jp067020t
2066,9_61,Tm3+-HA,TRUE,CC(C1)(O)C(C(C)=O)C(C2=C(C1=C(OC)C3=[O][Tm+3]4([Cl][Tm+3](C)(C)[Cl]4)O5)C6=C3C5=CC(OC)=C6C7=C(OC)C=C(OC)C8=C72)=C(OC)C8=[O]C,,,DMSO,,,,,,,,,,,,10.1021/jp067020t
2067,9_62,Yb3+-HA,TRUE,CC(C1)(O)C(C(C)=O)C(C2=C(C1=C(OC)C3=[O][Tm+3]4([Cl][Yb+3](C)(C)[Cl]4)O5)C6=C3C5=CC(OC)=C6C7=C(OC)C=C(OC)C8=C72)=C(OC)C8=[O]C,,,DMSO,,,,,,,,,,,,10.1021/jp067020t
2068,9_63,Lu3+-HA,TRUE,CC(C1)(O)C(C(C)=O)C(C2=C(C1=C(OC)C3=[O][Lu+3](C)(C)O4)C5=C3C4=CC(OC)=C5C6=C(OC)C=C(OC)C7=C62)=C(OC)C7=[O]C,,629,DMSO,,,,,,,,,,,,10.1021/jp067020t
2069,9_64,Ru2(bpy)4HB.,TRUE,CC(C1)=C(C(C)=O)C2=C(C3=C1C(OC)=C4C5=C3C(C(OC)=CC5=[O+][Ru-5]67([N+]8=CC=CC=C8C9=[N+]6C=CC=C9)([N+]%10=CC=CC=C%10C%11=[N+]7C=CC=C%11)O4)=C%12C(OC)=C%13)C%12=C%14C%13=[O+][Ru-5]%15%16([N+]%17=CC=CC=C%17C%18=[N+]%15C=CC=C%18)([N+]%19=CC=CC=C%19C%20=[N+]%16C=CC=C%20)OC%14=C2OC,647,,ethanol,,,,,,,,,,,,10.1016/j.bmcl.2005.04.035
2070,9_65,3,FALSE,O[C@H]1[C@H](O)[C@@H](NC(CSC2=C(OC)C(C(C3=C4C(OC)=C5O)=C5C2=O)=C(C(OC)=C6)C(C3=C(C(C(C)=O)=C(C)C4)C(OC)=C7O)=C7C6=O)=O)[C@H](O)O[C@@H]1CO,525,,CHCl3,,,,0.19,benzene,,,,,,"525, 650","gan guang ke xue yu guang hua xue. 2004,(05)"
2071,9_66,MAHB,FALSE,OC1=CC(OC)=C2C(C(C3=C4OC)=C5C6=C(C(C(OC)=C5C(C(C)=O)=C(C)C3)=O)C(O)=C(SCC(O)=O)C(OC)=C26)=C1C4=O,,,,,,,,,,,,,,,10.1039/b309024h
2072,9_67,TYHB,FALSE,OC1=CC(OC)=C2C(C(C3=C4OC)=C5C6=C(C(C(OC)=C5C(C(C)=O)=C(C)C3)=O)C(O)=C(SCC(NC(CC7=CC=C(O)C=C7)C(OC)=O)=O)C(OC)=C26)=C1C4=O,,,,,,,,,,,,,,,10.1039/b309024h
2073,9_68,BAHA,FALSE,OC1=CC(OC)=C2C(C(C3=C4NCCCC)=C5C6=C(C(C(OC)=C5C(C(C)=O)C(C)(O)C3)=O)C(O)=CC(OC)=C26)=C1C4=O,577,,CHCl3,13183,,,0.46,DMSO,,,,,,"466, 577, 641",10.1016/S0925-4439(01)00074-6
2074,9_69,BAHB,FALSE,OC1=CC(OC)=C2C(C(C3=C4NCCCC)=C5C6=C(C(C(OC)=C5C(C(C)=O)C(C)=C3)=O)C(O)=CC(OC)=C26)=C1C4=O,624,,CHCl3,12589,,,0.44,DMAO,,,,,,"463, 583, 621",10.1016/S0925-4439(01)00074-6
2075,9_70,EAHB1,FALSE,OC1=CC(OC)=C2C(C(C3=C4NCCO)=C5C6=C(C(C(OC)=C5C(C(C)=O)C(C)=C3)=O)C(O)=CC(OC)=C26)=C1C4=O,589,,CHCl3,8128,,,0.08,CHCl3,,,,,,"462, 589",10.1016/j.jphotobiol.2003.07.005
2076,9_71,HBBA-R2,FALSE,O=C1C2=C3C(C4=C(OC)C=C(NCCCC)C5=C4C(C6=C(OC)C5=O)=C3C(C(C(C)=O)=C(C)C6)=C1OC)=C(OC)C=C2NCCCC,616,,CHCl3,6190,,,0.32,water,,,,,,,US20020143066A1
2077,9_72,HBEA-R1,FALSE,O=C1C2=C3C(C4=C(OC)C=C(NCCO)C5=C4C(C6=C(OC)C5=O)=C3C(C(C(C)=O)=C(C)C6)=C1OC)=C(OC)C=C2NCCO,696,,DMSO,6230,,,0.6,water,,,,,,,US20020143066A1
2078,9_73,HBDP-R1,FALSE,O=C1C2=C3C(C4=C(OC)C=C(NCCCN(C)C)C5=C4C(C6=C(OC)C5=O)=C3C(C(C(C)=O)=C(C)C6)=C1OC)=C(OC)C=C2NCCCN(C)C,640,,CHCl3,550,,,0.36,water,,,,,,,US20020143066A1
2079,9_74,1a,FALSE,OC1=CC(OC)=C2C(C(C3=C4NCCCC)=C5C6=C(C(C(OC)=C5C(C(C)=O)C(C)=C3)=O)C(O)=CC(OC)=C26)=C1C4=O,621,,CHCl3,12589,,,,,,,,,,"463, 583, 621",10.1016/S0960-894X(01)00360-2
2080,9_75,2a,FALSE,OC1=CC(OC)=C2C(C(C3=C4NCCCCC)=C5C6=C(C(C(OC)=C5C(C(C)=O)C(C)=C3)=O)C(O)=CC(OC)=C26)=C1C4=O,625,,CHCl3,13804,,,,,,,,,,"471, 625",10.1016/S0960-894X(01)00360-2
2081,9_76,3a,FALSE,OC1=CC(OC)=C2C(C(C3=C4NCC5=CC=CC=C5)=C6C7=C(C(C(OC)=C6C(C(C)=O)C(C)=C3)=O)C(O)=CC(OC)=C27)=C1C4=O,579,,CHCl3,15849,,,,,,,,,,"458, 579, 628",10.1016/S0960-894X(01)00360-2
2082,9_77,4a,FALSE,OC1=CC(OC)=C2C(C(C3=C4NC#CC#CC#C)=C5C6=C(C(C(OC)=C5C(C(C)=O)C(C)=C3)=O)C(O)=CC(OC)=C26)=C1C4=O.[HH].[HH].[HH].[HH].[HH],581,,CHCl3,12589,,,,,,,,,,"474, 581, 620",10.1016/S0960-894X(01)00360-2
2083,9_78,1b,FALSE,OC1=CC(OC)=C2C(C(C3=C4OC)=C5C6=C(C(C7=C5C(C(C)=[N+]7CCCC)=C(C)C3)=O)C(O)=CC(OC)=C26)=C1C4=O,600,,CHCl3,3981,,,,,,,,,,"400, 470, 600",10.1016/S0960-894X(01)00360-2
2084,9_79,2b,FALSE,OC1=CC(OC)=C2C(C(C3=C4OC)=C5C6=C(C(C7=C5C(C(C)=[N+]7CCCCC)=C(C)C3)=O)C(O)=CC(OC)=C26)=C1C4=O,618,,CHCl3,11482,,,,,,,,,,"467, 618",10.1016/S0960-894X(01)00360-2
2085,9_80,3b,FALSE,OC1=CC(OC)=C2C(C(C3=C4OC)=C5C6=C(C(C7=C5C(C(C)=[N+]7CC8=CC=CC=C8)=C(C)C3)=O)C(O)=CC(OC)=C26)=C1C4=O,579,,CHCl3,13804,,,,,,,,,,"467, 579, 625",10.1016/S0960-894X(01)00360-2
2086,9_81,HD,FALSE,O=C(C=C1OC)C2=C(C(C3=C(C(C(C)=O)C(C)(O)C4)C(OC)=C(O)C5=C3C(C(OC)=CC5=O)=O)=C4C(OC)=C2O)C1=O,293,,CHCl3,22729,,,,,,,,,,"239.5, 254.5, 293, 438",10.1038/ja.2006.49
2087,9_82,compound 1,FALSE,OC1=C(Br)C(OC)=C2C(C(C3=C4OC)=C5C6=C(C(C(OC)=C5C(Br)(C(C)=O)C(C3Br)=C)=O)C(O)=C(Br)C(OC)=C26)=C1C4=O,502,,CHCl3,29512,,,0.54,CHCl3,,,,,,"502, 596",10.1080/10715760100301271
2088,9_83,Cu2+-HBCD,TRUE,OC[C@@H](O[C@](O[C@@]([C@@H]1O)([C@H](O2)C[N@@H]3CC[N@H]4C(CSC5=C6C7=C8C(C9=C(OC)C=C(O)C%10=C9C(C%11=C(OC)C%10=O)=C8C(C(C(C)=O)=C(C)C%11)=C(OC)C7=[O][Cu+2]43[OH]6)=C5OC)=O)[H])%12[H])[C@@]([H])(O[C@]%13([H])[C@H](O)[C@H]([C@@]([H])([C@H](O%13)CO)O[C@]([H])([C@@H](C([C@](O[C@]([C@@H]([C@H]([C@@]%14(O[C@]([C@@H]([C@H]%15O)O)(O[C@H](CO)[C@@]%15([H])O[C@@](O[C@@H]([C@@](O[C@@]2([C@@H]1O)[H])([C@@H]%16O)[H])CO)([C@@H]%16O)[H])[H])[H])O)O)(O[C@@H]%14CO)[H])%17[H])O)O)O[C@@H]%17CO)O)[C@H](O)[C@H]%12O,490,,PBS7,,,,,,,,,,,,10.1246/cl.2002.206
2089,9_84,Fe2+-HBCD,TRUE,OC[C@@H](O[C@](O[C@@]([C@@H]1O)([C@H](O2)C[N@@H]3CC[N@H]4C(CSC5=C6C7=C8C(C9=C(OC)C=C(O)C%10=C9C(C%11=C(OC)C%10=O)=C8C(C(C(C)=O)=C(C)C%11)=C(OC)C7=[O][Fe+2]43[OH]6)=C5OC)=O)[H])%12[H])[C@@]([H])(O[C@]%13([H])[C@H](O)[C@H]([C@@]([H])([C@H](O%13)CO)O[C@]([H])([C@@H](C([C@](O[C@]([C@@H]([C@H]([C@@]%14(O[C@]([C@@H]([C@H]%15O)O)(O[C@H](CO)[C@@]%15([H])O[C@@](O[C@@H]([C@@](O[C@@]2([C@@H]1O)[H])([C@@H]%16O)[H])CO)([C@@H]%16O)[H])[H])[H])O)O)(O[C@@H]%14CO)[H])%17[H])O)O)O[C@@H]%17CO)O)[C@H](O)[C@H]%12O,520,,PBS7,,,,,,,,,,,,10.1246/cl.2002.206
2090,9_85,Fe3+-HBCD,TRUE,OC[C@@H](O[C@](O[C@@]([C@@H]1O)([C@H](O2)C[N@@H]3CC[N@H]4C(CSC5=C6C7=C8C(C9=C(OC)C=C(O)C%10=C9C(C%11=C(OC)C%10=O)=C8C(C(C(C)=O)=C(C)C%11)=C(OC)C7=[O][Fe+3]43[OH]6)=C5OC)=O)[H])%12[H])[C@@]([H])(O[C@]%13([H])[C@H](O)[C@H]([C@@]([H])([C@H](O%13)CO)O[C@]([H])([C@@H](C([C@](O[C@]([C@@H]([C@H]([C@@]%14(O[C@]([C@@H]([C@H]%15O)O)(O[C@H](CO)[C@@]%15([H])O[C@@](O[C@@H]([C@@](O[C@@]2([C@@H]1O)[H])([C@@H]%16O)[H])CO)([C@@H]%16O)[H])[H])[H])O)O)(O[C@@H]%14CO)[H])%17[H])O)O)O[C@@H]%17CO)O)[C@H](O)[C@H]%12O,520,,PBS7,,,,,,,,,,,,10.1246/cl.2002.206
2091,9_86,HBCD,FALSE,OC[C@@H](O[C@](O[C@@]([C@@H]1O)([C@H](O2)CNCCNC(CSC3=C(O)C4=C5C(C6=C(OC)C=C(O)C7=C6C(C8=C(OC)C7=O)=C5C(C(C(C)=O)=C(C)C8)=C(OC)C4=O)=C3OC)=O)[H])9[H])[C@@]([H])(O[C@]%10([H])[C@H](O)[C@H]([C@@]([H])([C@H](O%10)CO)O[C@]([H])([C@@H](C([C@](O[C@]([C@@H]([C@H]([C@@]%11(O[C@]([C@@H]([C@H]%12O)O)(O[C@H](CO)[C@@]%12([H])O[C@@](O[C@@H]([C@@](O[C@@]2([C@@H]1O)[H])([C@@H]%13O)[H])CO)([C@@H]%13O)[H])[H])[H])O)O)(O[C@@H]%11CO)[H])%14[H])O)O)O[C@@H]%14CO)O)[C@H](O)[C@H]9O,450,,PBS7,,,,,,,,,,,,10.1246/cl.2002.206
2092,9_87,DPROHB,FALSE,OC1=CC(OC)=C2C(C(C3=C4NCCCS(=O)(O)=O)=C5C6=C(C(C(OC)=C5CC(C)=C3)=O)C(O)=CC(OC)=C26)=C1C4=O,581,,,,,,0.8,DMSO,,,,,,"458, 581, 635",CN101948412A
2093,9_88,DBUTHB,FALSE,OC1=CC(OC)=C2C(C(C3=C4NCCCCS(=O)(O)=O)=C5C6=C(C(C(OC)=C5CC(C)=C3)=O)C(O)=CC(OC)=C26)=C1C4=O,582,,,,,,0.83,DMSO,,,,,,"459, 582, 635",CN101948412A
2094,9_89,DPENHB,FALSE,OC1=CC(OC)=C2C(C(C3=C4NCCCCCS(=O)(O)=O)=C5C6=C(C(C(OC)=C5CC(C)=C3)=O)C(O)=CC(OC)=C26)=C1C4=O,581,,,,,,0.82,DMSO,,,,,,"460, 581, 635",CN101948412A
2095,9_90,DHEXHB,FALSE,OC1=CC(OC)=C2C(C(C3=C4NCCCCCCS(=O)(O)=O)=C5C6=C(C(C(OC)=C5CC(C)=C3)=O)C(O)=CC(OC)=C26)=C1C4=O,581,,,,,,0.85,DMSO,,,,,,"460, 581, 635",CN101948412A
2096,9_91,butHB,FALSE,OC1=CC(OC)=C2C(C(C3=C4OC)=C5C6=C(C(C(OC)=C5C(C(C)=NCCCCS(=O)(O)=O)=C(C)C3)=O)C(O)=CC(OC)=C26)=C1C4=O,593,,,,,,0.94,DMSO,,,,,,"499, 593, 640",CN101851183
2097,9_92,PENSHB,FALSE,OC1=CC(OC)=C2C(C(C3=C4OC)=C5C6=C(C(C(OC)=C5C(C(C)=NCCCCCS(=O)(O)=O)=C(C)C3)=O)C(O)=CC(OC)=C26)=C1C4=O,593,,,,,,0.98,DMSO,,,,,,"499, 593, 640",CN101851183
2098,9_93,HEXSHB,FALSE,OC1=CC(OC)=C2C(C(C3=C4OC)=C5C6=C(C(C(OC)=C5C(C(C)=NCCCCCCS(=O)(O)=O)=C(C)C3)=O)C(O)=CC(OC)=C26)=C1C4=O,593,,,,,,1.01,DMSO,,,,,,"498, 593, 642",CN101851183
2099,9_94,17位丙二胺与HB的Schiff碱化合物,FALSE,OC1=CC(OC)=C2C(C(C3=C4OC)=C5C6=C(C(C(OC)=C5C(C(C)=NCCCN)=C(C)C3)=O)C(O)=CC(OC)=C26)=C1C4=O,590,,,,,,0.78,CHCl3,,,,,,"490, 590, 635",200410034868.X
2100,9_95,2位丁二胺取代HB,FALSE,OC1=CC(OC)=C2C(C(C3=C4NCCCCN)=C5C6=C(C(C(OC)=C5C(C(C)=O)C(C)=C3)=O)C(O)=CC(OC)=C26)=C1C4=O,543,,,,,,0.058,CHCl3,,,,,,"640, 543, 579",200410034868.X
2101,9_96,17位丁二胺与HB的Schiff碱化合物,FALSE,OC1=CC(OC)=C2C(C(C3=C4OC)=C5C6=C(C(C(OC)=C5C(C(C)=NCCCCN)=C(C)C3)=O)C(O)=CC(OC)=C26)=C1C4=O,588,,,,,,0.88,CHCl3,,,,,,"492, 588, 635",200410034868.X
2102,9_97,2位己二胺取代HB,FALSE,OC1=CC(OC)=C2C(C(C3=C4NCCCCCCN)=C5C6=C(C(C(OC)=C5C(C(C)=O)=C(C)C3)=O)C(O)=CC(OC)=C26)=C1C4=O,600,,,,,,0.058,CHCl3,,,,,,"465, 600",200410034868.X
2103,9_98,17位己二胺与HB的Schiff碱化合物,FALSE,OC1=CC(OC)=C2C(C(C3=C4OC)=C5C6=C(C(C(OC)=C5C(C(C)=NCCCCCCN)=C(C)C3)=O)C(O)=CC(OC)=C26)=C1C4=O,580,,,,,,,,,,,,,"493, 580, 620",200410034868.X
2104,9_99,HB,FALSE,OC1=CC(OC)=C2C(C(C3=C4OC)=C5C6=C(C(C(OC)=C5C(C(C)=O)=C(C)C3)=O)C(O)=CC(OC)=C26)=C1C4=O,470,662.5,DMSO,,,,0.76,DMSO,,,,,,,10.1088/1464-4258/10/10/104026
2105,9_100,HA,FALSE,OC1=CC(OC)=C2C(C(C3=C4OC)=C5C6=C(C(C(OC)=C5C(C(C)=O)C(O)(C)C3)=O)C(O)=CC(OC)=C26)=C1C4=O,581,603,DMSO,,,,,,,,,,,"493, 580, 622",200410034868.X
2106,9_101,DPAHB,FALSE,O=C(C=C1OC)C2=C(C3=C4C5=C2NC(C)(C)CN5)C1=C(C(OC)=C6)C(C3=C(C(C(C)=O)C(C)=C4)C(OC)=C7O)=C7C6=O,630,710,water,36300,0.011,,0.33,water,,,,,,"465.0, 630.0",org/10.1016/j.biomaterials.2018.09.021
2107,9_102,APHB,FALSE,O=C(C=C1OC)C2=C(C3=C4C5=C2NC(C)CN5)C1=C(C(OC)=C6)C(C3=C(C(C(C)=O)C(C)=C4)C(OC)=C7O)=C7C6=O,630,710,water,32000,0.013,,,,,,,,,"460.0, 626.0",org/10.1021/acsami.9b03270
2108,9_103,HE,FALSE,O=C1C=C(OC)C2=C(C3=C4C(O)=C(NC5CCCCC5)C6=C3C7=C(C(C(C)=O)C(C)=C6)C(OC)=C(O)C1=C27)C(OC)=C8C4=NCCS8,640,805,DMSO,21400,0.039,,0.27,DMF,,,,,,640,org/10.1002/asia.202000911
2109,9_104,HF,FALSE,O=C1C=C(OC)C2=C(C3=C4C(O)=C(NC5CCCC5)C6=C3C7=C(C(C(C)=O)C(C)=C6)C(OC)=C(O)C1=C27)C(OC)=C8C4=NCCS8,640,805,DMSO,24000,0.031,,0.31,DMF,,,,,,640,org/10.1002/asia.202000911
2110,9_105,5,FALSE,O=C(C=C1OC)C2=C(C3=C4C(OC)=C2O)C1=C(C(OC)=C5)C(C3=C(C(C(C)=NCCCCS(=O)(O)=O)C(C)=C4)C(OC)=C6O)=C6C5=O,640,675,DMSO,,,,0.94,,,,,,,,"org/10.1021/jm2017368 | J. Med. Chem. 2012, 55, 1910−1919"
2111,9_106,6,FALSE,O=C(C=C1OC)C2=C(C3=C4C(OC)=C2O)C1=C(C(OC)=C5)C(C3=C(C(C(C)=NCCCCCS(=O)(O)=O)C(C)=C4)C(OC)=C6O)=C6C5=O,640,675,DMSO,,,,0.98,,,,,,,,"org/10.1021/jm2017368 | J. Med. Chem. 2012, 55, 1910−1919"
2112,9_107,7,FALSE,O=C(C=C1OC)C2=C(C3=C4C(OC)=C2O)C1=C(C(OC)=C5)C(C3=C(C(C(C)=NCCCCCCS(=O)(O)=O)C(C)=C4)C(OC)=C6O)=C6C5=O,640,675,DMSO,,,,1.01,,,,,,,,"org/10.1021/jm2017368 | J. Med. Chem. 2012, 55, 1910−1919"
2113,9_108,3,FALSE,O=C(C=C1OC)C2=C(C3=C4C(OC)=C2O)C1=C(C(OC)=C5)C(C3=C(C=C(C)C4NCCCS(=O)(O)=O)C(OC)=C6O)=C6C5=O,580,,CH2Cl2,19000,,,0.57,CH2Cl2,,,,,,,org/10.1016/j.dyepig.2013.06.037
2114,9_109,4,FALSE,O=C(C=C1OC)C2=C(C3=C4C(OC)=C2O)C1=C(C(OC)=C5)C(C3=C(C=C(C)C4NCCCCCS(=O)(O)=O)C(OC)=C6O)=C6C5=O,580,,CH2Cl2,21000,,,0.6,CH2Cl2,,,,,,,org/10.1016/j.dyepig.2013.06.037
2115,9_110,EDAHB,FALSE,O=C(C=C1OC)C2=C(C3=C4C5=C2NCCN5)C1=C(C(OC)=C6)C(C3=C(C(C(C)=O)C(C)=C4)C(OC)=C7O)=C7C6=O,641,,DMSO,36307,,,0.82,,,,,,,,org/10.1016/j.jphotobiol.2012.08.014
2116,9_111,PENSHB,FALSE,O=C(C=C1OC)C2=C(C3=C4C(OC)=C2O)C1=C(C(OC)=C5)C(C3=C(C(C(C)=NCCCS(=O)(O)=O)=C(C)C4)C(OC)=C6O)=C6C5=O,640,,DMSO,,,,0.85,,,,,,,,org/10.1016/j.pdpdt.2014.01.003 
2117,9_112,4,FALSE,O=C(C=C1OC)C2=C(C3=C(C4)C(OC)=C2OCC5=CC=C(B6OC(C)(C)C(C)(C)O6)C=C5)C1=C(C(OC)=C7)C(C3=C(C(C(C)=O)=C4C)C(OC)=C8OCC9=CC=C(B%10OC(C)(C)C(C)(C)O%10)C=C9)=C8C7=O,450,,5%DMSO-PBS,,,,,,,,,,,,DOI: 10.1039/d1cc05823a
2118,9_113,THB,FALSE,OC1=CC(OC)=C2C(C(C3=C4NCCS(=O)(O)=O)=C5C6=C(C(C(OC)=C5C(C(C)=O)=C(C)C3)=O)C(O)=CC(OC)=C26)=C1C4=O,578,,DMSO,,,,,,,,,,,,DOI:10.13480/j.issn1003-9430.2013.03.001
2119,9_114,3HB,FALSE,OC1=CC(OC)=C2C(C(C3=C4NCCCS(=O)(O)=O)=C5C6=C(C(C(OC)=C5C(C(C)=O)=C(C)C3)=O)C(O)=CC(OC)=C26)=C1C4=O,578,,DMSO,,,,,,,,,,,,DOI:10.13480/j.issn1003-9430.2013.03.001