,index,name,metal_complex,SMILES,max_absorption_peak,max_emission_peak,solvant_spectrum,molar_extinction_coefficient,quantum_yield_fluorescence,max_phosphorescence_peak,quantum_yield_singlet_oxygen,solvant_quantum_yield,energy_level_exited_triplet_state,energy_level_HUMO,energy_level_LUMO,difference_HOMO_and_LUMO,method_for_HOMO/LUMO,all_absoption_peaks,reference_DOI
1931,8_108,3,FALSE,O=C(C(SCCOC1O[C@H](COC(C)=O)[C@@H](OC(C)=O)[C@H](OC(C)=O)[C@H]1OC(C)=O)=C2OC)C3=C(C4=C5C(OC)=C3O)C2=C(C(OC)=C6SCCOC7O[C@H](COC(C)=O)[C@@H](OC(C)=O)[C@H](OC(C)=O)[C@H]7OC(C)=O)C(C4=C(C(C(C)=O)C(C)=C5)C(OC)=C8O)=C8C6=O,582,,CHCl3,10965,,,,,,,,,,516， 582,org/10.1016/S0040-4039(98)00928-9
1932,8_109,4,FALSE,O=C(C(SCCO[C@@H]1O[C@H](CO)[C@@H](O)[C@H](O)[C@H]1O)=C2OC)C3=C(C4=C5C(OC)=C3O)C2=C(C(OC)=C6SCCO[C@@H]7O[C@H](CO)[C@@H](O)[C@H](O)[C@H]7O)C(C4=C(C(C(C)=O)C(C)=C5)C(OC)=C8O)=C8C6=O,586,,CHCl3,10965,,,0.19,DMSO,,,,,,510， 586,org/10.1016/S0040-4039(98)00928-9
1933,8_110,2A,FALSE,O=C(C(SCCO)=C1OC)C2=C(C3=C4C(OC)=C2O)C1=C(C(OC)=C5[H])C(C3=C(C(C(C)=O)C(C)=C4)C(OC)=C6O)=C6C5=O,580,,CHCl3,10965,,,,,,,,,,"490, 580",org/10.1016/S1011-1344(98)00116-X
1934,8_111,2B,FALSE,O=C(C([H])=C1OC)C2=C(C3=C4C(OC)=C2O)C1=C(C(OC)=C5SCCO)C(C3=C(C(C(C)=O)C(C)=C4)C(OC)=C6O)=C6C5=O,580,,CHCl3,10965,,,,,,,,,,"490, 580",org/10.1016/S1011-1344(98)00116-X
1935,8_112,2C,FALSE,O=C(C([H])=C1OC)C2=C(C3=C4C(OC)=C2O)C1=C(C(OC)=C5SCCO)C(C3=C(C(C(C)=O)C(C)=C4)C(OC)=C6O)=C6C5=O,514,,CHCl3,19054,,,,,,,,,,514,org/10.1016/S1011-1344(98)00116-X
1936,8_113,3A,FALSE,O=C(C(SCC(O)=O)=C1OC)C2=C(C3=C4C(OC)=C2O)C1=C(C(OC)=C5[H])C(C3=C(C(C(C)=O)C(C)=C4)C(OC)=C6O)=C6C5=O,580,,CHCl3,10965,,,,,,,,,,"490, 580",org/10.1016/S1011-1344(98)00116-X
1937,8_114,3B,FALSE,O=C(C([H])=C1OC)C2=C(C3=C4C(OC)=C2O)C1=C(C(OC)=C5SCC(O)=O)C(C3=C(C(C(C)=O)C(C)=C4)C(OC)=C6O)=C6C5=O,580,,CHCl3,10965,,,,,,,,,,"490, 580",org/10.1016/S1011-1344(98)00116-X
1938,8_115,3C,FALSE,O=C(C(SCC(O)=O)=C1OC)C2=C(C3=C4C(OC)=C2O)C1=C(C(OC)=C5SCC(O)=O)C(C3=C(C(C(C)=O)C(C)=C4)C(OC)=C6O)=C6C5=O,514,,CHCl3,19054,,,,,,,,,,514,org/10.1016/S1011-1344(98)00116-X
1939,8_116,4A,FALSE,O=C(C(SCC(N)C(O)=O)=C1OC)C2=C(C3=C4C(OC)=C2O)C1=C(C(OC)=C5[H])C(C3=C(C(C(C)=O)C(C)=C4)C(OC)=C6O)=C6C5=O,580,,CHCl3,10965,,,,,,,,,,"490, 580",org/10.1016/S1011-1344(98)00116-X
1940,8_117,4B,FALSE,O=C(C([H])=C1OC)C2=C(C3=C4C(OC)=C2O)C1=C(C(OC)=C5SCC(N)C(O)=O)C(C3=C(C(C(C)=O)C(C)=C4)C(OC)=C6O)=C6C5=O,580,,CHCl3,10965,,,,,,,,,,"490, 580",org/10.1016/S1011-1344(98)00116-X
1941,8_118,4C,FALSE,O=C(C(SCC(N)C(O)=O)=C1OC)C2=C(C3=C4C(OC)=C2O)C1=C(C(OC)=C5SCC(N)C(O)=O)C(C3=C(C(C(C)=O)C(C)=C4)C(OC)=C6O)=C6C5=O,514,,CHCl3,19054,,,,,,,,,,514,org/10.1016/S1011-1344(98)00116-X
1942,8_119,4D,FALSE,OC1=CC(OC)=C2C3=C(OC)C4=C(NC(C(O)=O)CS4)C5=C3C(C6=C(OC)C5=O)=C7C2=C1C(C(OC)=C7C(C(C)=O)=C(C)C6)=O,711,,CHCl3,11481,,,,,,,,,,"538, 711",org/10.1016/S1011-1344(98)00116-X
1943,8_120,4E,FALSE,OC1=CC(OC)=C2C(C(C3=C4OC)=C5C6=C(C(C(OC)=C5C(C(C)=O)=C(C)C3)=O)C(NC(C(O)=O)CS7)=C7C(OC)=C26)=C1C4=O,711,,CHCl3,11481,,,,,,,,,,"538, 711",org/10.1016/S1011-1344(98)00116-X
1944,8_121,2-BA-2-DMHA,FALSE,O=C(C=C1OC)C2=C(C3=C4C(NCCCC)=C2O)C1=C(C(OC)=C5)C(C3=C(C(C(C)=O)C(C)(O)C4)C(OC)=C6O)=C6C5=O,628,,CHCl3,,,,,,,,,,,"467, 538, 577, 628",org/10.1016/S1011-1344(98)00101-8
1945,8_122,A,FALSE,O=C(C(SCC(N)C(O)=O)=C1OC)C2=C(C3=C4C(OC)=C2O)C1=C(C(OC)=C5[H])C(C3=C(C(C(C)=O)=C(C)C4)C(OC)=C6O)=C6C5=O,,,,,,,,,,,,,,,org/10.1016/S0143-7208(98)00070-9
1946,8_123,B,FALSE,O=C(C(SCC(N)C(O)=O)=C1OC)C2=C(C3=C4C(OC)=C2O)C1=C(C(OC)=C5SCC(N)C(O)=O)C(C3=C(C(C(C)=O)=C(C)C4)C(OC)=C6O)=C6C5=O,,,,,,,,,,,,,,,org/10.1016/S0143-7208(98)00070-9
1947,8_124,MCHB,FALSE,OC1=CC(OC)=C2C3=C(OC)C4=C(NC(C(O)=O)CS4)C5=C3C(C6=C(OC)C5=O)=C7C2=C1C(C(OC)=C7C(C(C)=O)=C(C)C6)=O,,,,,,,,,,,,,,,org/10.1016/S0143-7208(98)00070-9
1948,8_125,DCHB,FALSE,O=C1C2=C3C(C4=C(OC)C5=C(NC(C(O[Na])=O)CS5)C6=C4C(C7=C(OC)C6=O)=C3C(C(C(C)=O)=C(C)C7)=C1OC)=C(OC)C8=C2NC(C(O[Na])=O)CS8,684,,CHCl3,8912,,,,,,,,,,"580, 684",org/10.1016/S0143-7208(98)00070-9
1949,8_126,1,FALSE,O=C1C=C(OC)C2=C(C3=C4C(O)=C(OC)C5=C3C6=C(C(C(C)=O)C(C)=C5)C(OC)=C(O)C1=C26)C(OC)=C7C4=NCCS7,652,,,11481,,,,,,,,,,"532, 598, 652",org/10.1007/BF02886034
1950,8_127,2,FALSE,O=C1C2=C3C(C4=C(OC)C5=C(NCCS5)C6=C4C(C7=C(OC)C6=O)=C3C(C(C(C)=O)=C(C)C7)=C1OC)=C(OC)C8=C2NCCS8,684,,,8912,,,,,,,,,,"580, 684",org/10.1007/BF02886034
1951,8_128,3,FALSE,O=C1C=C(OC)C2=C(C3=C4C(O)=C(OC)C5=C3C6=C(C(C(C)=O)C(C)=C5)C(OC)=C(O)C1=C26)C(OC)=C7C4=NC(C(O)=O)CS7,652,,,11481,,,,,,,,,,"532, 598, 652",org/10.1007/BF02886034
1952,8_129,4,FALSE,O=C1C2=C3C(C4=C(OC)C5=C(NC(C(O[Na])=O)CS5)C6=C4C(C7=C(OC)C6=O)=C3C(C(C(C)=O)=C(C)C7)=C1OC)=C(OC)C8=C2NC(C(O[Na])=O)CS8,684,,,8912,,,,,,,,,,"580, 684",org/10.1007/BF02886034
1953,8_130,5,FALSE,OC1=C(SCC(O)=O)C(OC)=C2C(C(C3=C4OC)=C5C6=C(C(C(OC)=C5C(C(C)=O)=C(C)C3)=O)C(O)=CC(OC)=C26)=C1C4=O,580,,,11481,,,,,,,,,,"490, 580",org/10.1007/BF02886034
1954,8_131,6,FALSE,OC1=C(SCC(O)=O)C(OC)=C2C(C(C3=C4OC)=C5C6=C(C(C(OC)=C5C(C(C)=O)=C(C)C3)=O)C(O)=C(SCC(O)=O)C(OC)=C26)=C1C4=O,512,,,18620,,,,,,,,,,512,org/10.1007/BF02886034
1955,8_132,7,FALSE,OC1=C(SCCO)C(OC)=C2C(C(C3=C4OC)=C5C6=C(C(C(OC)=C5C(C(C)=O)=C(C)C3)=O)C(O)=C(SCCO)C(OC)=C26)=C1C4=O,514,,,19054,,,,,,,,,,514,org/10.1007/BF02886034
1956,8_133,8,FALSE,OC1=C(SCCOC2O[C@H](CO)C(O)[C@H](O)[C@H]2O)C(OC)=C3C(C(C4=C5OC)=C6C7=C(C(C(OC)=C6C(C(C)=O)=C(C)C4)=O)C(O)=C(SCCOC8O[C@H](CO)C(O)[C@H](O)[C@H]8O)C(OC)=C37)=C1C5=O,512,,,18197,,,,,,,,,,512,org/10.1007/BF02886034
1957,8_134,9,FALSE,OC1=C([H])C(OC)=C2C3=C(OC)C4=C(NCCS4)C5=C3C(C6=C(OC)C5=O)=C7C2=C1C(C(OC)=C7C(C(C)=O)=C(C)C6)=O,,,,,,,,,,,,,,,
1958,8_135,5-Br-HB,FALSE,O=C(C(Br)=C1OC)C2=C(C3=C4C(OC)=C2O)C1=C(C(OC)=C5)C(C3=C(C(C(C)=O)=C(C)C4)C(OC)=C6O)=C6C5=O,580,,CH3CN,11200,,,0.27,,,,,,,"484, 580",10.1360/csb1993-38-9-797
1959,8_136,"5,8-di-Br-HB",FALSE,O=C(C(Br)=C1OC)C2=C(C3=C4C(OC)=C2O)C1=C(C(OC)=C5Br)C(C3=C(C(C(C)=O)=C(C)C4)C(OC)=C6O)=C6C5=O,592,,CH3CN,12200,,,0.27,,,,,,,"508, 592",10.1360/csb1993-38-9-797
1960,8_137,13-SO3H-DDHA,FALSE,O=C(C=C1OC)C2=C(C3=C4C(OC)=C2O)C1=C(C(OC)=C5)C(C3=C(C([H])=C(C)C4S(=O)(O[Na])=O)C(OC)=C6O)=C6C5=O,444,,water,15995,,,,,,,,,,444,"胡义镇,安静仪,蒋丽金. 竹红菌素的13位磺化反应和反应机理[J]. 有机化学, 1993, 13(6): 597-603."
1961,8_138,1,FALSE,OC1=C(Br)C(OC)=C2C(C(C3=C4OC)=C5C6=C(C(C(OC)=C5C(C(C)=O)=C(C)C3)=O)C(O)=CC(OC)=C26)=C1C4=O,580,,,,,,,,,,,,,"484, 580",10.3321/j.issn:0023-074X.2000.19.002
1962,8_139,2,FALSE,OC1=C(Br)C(OC)=C2C(C(C3=C4OC)=C5C6=C(C(C(OC)=C5C(C(C)=O)=C(C)C3)=O)C(O)=C(Br)C(OC)=C26)=C1C4=O,592,,,,,,,,,,,,,"508, 592",10.3321/j.issn:0023-074X.2000.19.002
1963,8_140,3,FALSE,OC1=C(S(=O)([O-])=O)C(OC)=C2C(C(C3=C4OC)=C5C6=C(C(C(OC)=C5C(C(C)=O)=C(C)C3)=O)C(O)=CC(OC)=C26)=C1C4=O,570,,,,,,,,,,,,,"464, 570",10.3321/j.issn:0023-074X.2000.19.002
1964,8_141,4,FALSE,OC1=C(S(=O)([O-])=O)C(OC)=C2C(C(C3=C4OC)=C5C6=C(C(C(OC)=C5C(C(C)=O)=C(C)C3)=O)C(O)=C(S(=O)([O-])=O)C(OC)=C26)=C1C4=O,480,,,,,,,,,,,,,480,10.3321/j.issn:0023-074X.2000.19.002
1965,8_142,5,FALSE,OC1=CC(OC)=C2C(C(C3=C4OC)=C5C6=C(C(C(OC)=C5C(C(C)=O)=C(C)C3S(O[Na])=O)=O)C(O)=CC(OC)=C26)=C1C4=O,444,,,,,,,,,,,,,444,10.3321/j.issn:0023-074X.2000.19.002
1966,8_143,6,TRUE,O=C1C(C(OC)=C(OC)C(C(C(C)=O)C(C)(C)C2)=C3C4=C2C(OC)=C5O[Al+]OC6=C(OC)C(C(C(C)=O)C(C)(C)C7)=C(C8=C7C(OC)=C9OC)C(C(C(OC)=C%10)=C%11C8=C9C(C=C%11OC)=O)C6C%10=O)C3C(C(OC)=C1)=C%12C4=C5C(C=C%12OC)=O>>,592,,,,,,,,,,,,,"492, 550, 592",10.3321/j.issn:0023-074X.2000.19.002
1967,8_144,7,FALSE,OC1=CC(OC)=C2C(C(C3=C4OC)=C5C6=C(C(C(OC)=C5C(C(C)=NCCO)=C(C)C3)=O)C(O)=CC(OC)=C26)=C1C4=O,632,,,,,,,,,,,,,"492, 586, 632",10.3321/j.issn:0023-074X.2000.19.002
1968,8_145,8,FALSE,OC1=CC(OC)=C2C(C(C3=C4OC)=C5C6=C(C(C(O)=C5C(C(C)=NCCO)=C(C)C3)=O)C(O)=CC(OC)=C26)=C1C4=O,576,,,,,,,,,,,,,"456, 560, 576",10.3321/j.issn:0023-074X.2000.19.002
1969,8_146,9,FALSE,OC1=CC(OC)=C2C(C(C3=C4OC)=C5C6=C(C(C7=C5C(C(C)N7CCO)=C(C)C3)=O)C(O)=CC(OC)=C26)=C1C4=O,596,,,,,,,,,,,,,"398, 474, 596",10.3321/j.issn:0023-074X.2000.19.002
1970,8_147,10,FALSE,OC1=C(SCCO)C(OC)=C2C(C(C3=C4OC)=C5C6=C(C(C(OC)=C5C(C(C)=O)=C(C)C3)=O)C(O)=C(SCCO)C(OC)=C26)=C1C4=O,580,,,,,,3.02,,,,,,,"512, 580",10.3321/j.issn:0023-074X.2000.19.002
1971,8_148,11,FALSE,OC1=C(SCCOC2O[C@H](CO)[C@@H](O)[C@H](O)[C@H]2O)C(OC)=C3C(C(C4=C5OC)=C6C7=C(C(C(OC)=C6C(C(C)=O)=C(C)C4)=O)C(O)=C(SCCOC8O[C@H](CO)[C@@H](O)[C@H](O)[C@H]8O)C(OC)=C37)=C1C5=O,582,,,,,,2.86,,,,,,,"512, 582",10.3321/j.issn:0023-074X.2000.19.002
1972,8_148,12,FALSE,O=C1C=C(OC)C2=C(C3=C4C(O)=C(OC)C5=C3C6=C(C(C(C)=O)C(C)=C5)C(OC)=C(O)C1=C26)C(OC)=C7C4=NCCS7,652,,,,,,0.36,,,,,,,"532, 598, 652",10.3321/j.issn:0023-074X.2000.19.002
1973,8_149,13,FALSE,O=C1C2=C3C(C4=C(OC)C5=C(NCCS5)C6=C4C(C7=C(OC)C6=O)=C3C(C(C(C)=O)=C(C)C7)=C1OC)=C(OC)C8=C2NCCS8,684,,,,,,2.8,,,,,,,"580, 684",10.3321/j.issn:0023-074X.2000.19.002
1974,8_150,14,FALSE,O=C1C=C(OC)C2=C(C3=C4C(O)=C(OC)C5=C3C6=C(C(C(C)=O)C(C)=C5)C(OC)=C(O)C1=C26)C(OC)=C7C4=NC(C(O)=O)CS7,652,,,,,,0.32,,,,,,,"532, 598, 652",10.3321/j.issn:0023-074X.2000.19.002
1975,8_151,15,FALSE,O=C1C2=C3C(C4=C(OC)C5=C(NC(C(O)=O)CS5)C6=C4C(C7=C(OC)C6=O)=C3C(C(C(C)=O)=C(C)C7)=C1OC)=C(OC)C8=C2NC(C(O)=O)CS8,684,,,,,,2.9,,,,,,,"580, 684",10.3321/j.issn:0023-074X.2000.19.002
1976,8_152,16,FALSE,O=C1C2=C3C(C4=C(OC)C5=C(NC(C(O[Na])=O)CS5)C6=C4C(C7=C(OC)C6=O)=C3C(C(C(C)=O)=C(C)C7)=C1OC)=C(OC)C8=C2NC(C(O[Na])=O)CS8,684,,,,,,2.86,,,,,,,"580, 684",10.3321/j.issn:0023-074X.2000.19.002
1977,8_153,17,FALSE,OC1=C(SCC(O)=O)C(OC)=C2C(C(C3=C4OC)=C5C6=C(C(C(OC)=C5C(C(C)=O)=C(C)C3)=O)C(O)=CC(OC)=C26)=C1C4=O,580,,,,,,1.84,,,,,,,"490, 580",10.3321/j.issn:0023-074X.2000.19.002
1978,8_154,18,FALSE,OC1=C(SCC(O)=O)C(OC)=C2C(C(C3=C4OC)=C5C6=C(C(C(OC)=C5C(C(C)=O)=C(C)C3)=O)C(O)=C(SCC(O)=O)C(OC)=C26)=C1C4=O,582,,,,,,2.93,,,,,,,"512, 582",10.3321/j.issn:0023-074X.2000.19.002
1979,8_155,19,FALSE,O=C(C=C1OC)C2=C(C3=C4C(OC)=C2O)C1=C(C(OC)=C5)C(C3=C(C(C(C)=O)=C(C)C4NCC(O)=O)C(OC)=C6O)=C6C5=O,582,,,,,,,,,,,,,"464, 582",10.3321/j.issn:0023-074X.2000.19.002
1980,8_156,20,FALSE,O=C(C=C1OC)C2=C(C3=C4C(OC)=C2O)C1=C(C(OC)=C5)C(C3=C(C(C(C)=O)=C(C)C4NC(C)C(O)=O)C(OC)=C6O)=C6C5=O,580,,,,,,,,,,,,,"462, 580",10.3321/j.issn:0023-074X.2000.19.002
1981,8_157,21,FALSE,O=C(C=C1OC)C2=C(C3=C4C(OC)=C2O)C1=C(C(OC)=C5)C(C3=C(C(C(C)=O)=C(C)C4CCC(O)=O)C(OC)=C6O)=C6C5=O,586,,,,,,,,,,,,,"466, 586",10.3321/j.issn:0023-074X.2000.19.002
1982,8_158,22,FALSE,O=C(C=C1OC)C2=C(C3=C4C(NCCCC)=C2O)C1=C(C(OC)=C5)C(C3=C(C(C(C)=O)C(C)(O)C4)C(OC)=C6O)=C6C5=O,628,,,,,,,,,,,,,"467, 538, 577, 628",10.3321/j.issn:0023-074X.2000.19.002
1983,8_159,EA,FALSE,OC1=CC(OC)=C2C(C(C3=C4OC)=C5C6=C(C(C(OC)=C5C(C(C)=O)C3C(C)=O)=O)C(O)=CC(OC)=C26)=C1C4=O,,,,,,,0.94,,,,,,,,10.3321/j.issn:0567-7351.2000.07.018
1984,8_160,A,FALSE,O=C(C=C1OC)C2=C(C3=C4C(OC)=C2O)C1=C(C(OC)=C5)C(C3=C(C(C(C)=N)=C(C)C4)C(OC)=C6O)=C6C5=O,618,,CHCl3,10000,,,0.59,,,,,,,"482, 573, 618",org/10.1016/S0304-4165(00)00081-7
1985,8_161,C,FALSE,O=C(C=C1OC)C2=C(C3=C4C(OC)=C2O)C1=C(C(OC)=C5)C(C3=C(C(C(C)=NCCO)=C(C)C4)C(OC)=C6O)=C6C5=O,626,,CHCl3,14000,,,0.71,,,,,,,"490, 582, 626",org/10.1016/S0304-4165(00)00081-7
1986,8_162,D,FALSE,O=C(C=C1OC)C2=C(C3=C4C(OC)=C2O)C1=C(C(OC)=C5)C(C3=C(C(C(C)=NCCO)=C(C)C4)C(O)=C6O)=C6C5=O,574,,CHCl3,13000,,,0.21,,,,,,,"456,554 574",org/10.1016/S0304-4165(00)00081-7
1987,8_163,E,FALSE,O=C(C=C1OC)C2=C(C3=C4C(OC)=C2O)C1=C(C(OC)=C5)C(C3=C(C(C(C)=C4)=C(C)N6CCO)C6=C7O)=C7C5=O,598,,CHCl3,11000,,,0.16,,,,,,,"406, 482, 598",org/10.1016/S0304-4165(00)00081-7
1988,9_0,EDAHB,FALSE,O=C(C=C1OC)C2=C(C3=C4C5=C2NCCN5)C1=C(C(OC)=C6)C(C3=C(C(C(C)=O)C(C)=C4)C(OC)=C7O)=C7C6=O,640,,CHCl3,36300,,,0.82,,,,,,,"462, 555, 605, 641",10.1016/j.bmcl.2004.01.003
1989,9_0,EDAHB,FALSE,O=C(C=C1OC)C2=C(C3=C4C5=C2NCCN5)C1=C(C(OC)=C6)C(C3=C(C(C(C)=O)C(C)=C4)C(OC)=C7O)=C7C6=O,640,689,isopropyl ether,,,,0.82,,,,,,,,10.1562/2004-03-13-RN-113.1
1990,9_0,EDAHB,FALSE,O=C(C=C1OC)C2=C(C3=C4C5=C2NCCN5)C1=C(C(OC)=C6)C(C3=C(C(C(C)=O)C(C)=C4)C(OC)=C7O)=C7C6=O,640,694,CHCl3,,,,0.82,,,,,,,,10.1562/2004-03-13-RN-113.1
1991,9_0,EDAHB,FALSE,O=C(C=C1OC)C2=C(C3=C4C5=C2NCCN5)C1=C(C(OC)=C6)C(C3=C(C(C(C)=O)C(C)=C4)C(OC)=C7O)=C7C6=O,640,706,EtOAc,,,,0.82,,,,,,,,10.1562/2004-03-13-RN-113.1
1992,9_0,EDAHB,FALSE,O=C(C=C1OC)C2=C(C3=C4C5=C2NCCN5)C1=C(C(OC)=C6)C(C3=C(C(C(C)=O)C(C)=C4)C(OC)=C7O)=C7C6=O,640,725,Ethanol,,,,0.82,,,,,,,,10.1562/2004-03-13-RN-113.1
1993,9_0,EDAHB,FALSE,O=C(C=C1OC)C2=C(C3=C4C5=C2NCCN5)C1=C(C(OC)=C6)C(C3=C(C(C(C)=O)C(C)=C4)C(OC)=C7O)=C7C6=O,640,730,DMSO,,,,0.82,,,,,,,,10.1562/2004-03-13-RN-113.1
1994,9_1,DAHB,FALSE,OC1=CC(OC)=C2C(C(C3=C4OC)=C5C6=C(C(C(OC)=C5C(C(C)=NCCCN)=C(C)C3)=O)C(O)=CC(OC)=C26)=C1C4=O,490,670,C6H6,10233,0.072,,0.69,C6H6,,,,,,"490, 590, 635",10.1016/j.dyepig.2004.02.010
1995,9_2,EAHB,FALSE,OC1=CC(OC)=C2C3=C(OC)C=C(NCCO)C4=C3C(C5=C(NCCO)C4=O)=C6C2=C1C(C(OC)=C6C(C(C)=O)=C(C)C5)=O,629,,CHCl3,10715,,,0.15,CHCl3,,,,,,"477, 629",10.1016/j.dyepig.2004.06.023
1996,9_3,HBO2H,FALSE,OC1=CC(OC)=C2C(C(C3=C4OC)=C5C6=C(C(C(OC)=C5C(C(C)=O)=C(C(O)=O)C3)=O)C(O)=CC(OC)=C26)=C1C4=O,460,625,PBS(7.4),,,,0.63,CHCl3,,,,,,"460, 555, 599",10.1016/j.dyepig.2004.08.015
1997,9_3,HBO2H,FALSE,OC1=CC(OC)=C2C(C(C3=C4OC)=C5C6=C(C(C(OC)=C5C(C(C)=O)=C(C(O)=O)C3)=O)C(O)=CC(OC)=C26)=C1C4=O,455,625,CHCl3,,,,0.63,CHCl3,,,,,,"455, 575",10.1039/b211388k
1998,9_4,SCHB,FALSE,OC1=CC(OC)=C2C(C(C3=C4OC)=C5C6=C(C(C(OC)=C5C(C(C)=O)=C(C(O[Na])=O)C3)=O)C(O)=CC(OC)=C26)=C1C4=O,480,,PBS(7.4),,,,0.26,PBS(7.4),,,,,,"480, 610",10.1016/j.dyepig.2004.08.015
1999,9_5,2-BA-2-DMHB,FALSE,O=C(C=C1OC)C2=C(C3=C4C(NCCCC)=C2O)C1=C(C(OC)=C5)C(C3=C(C(C(C)=O)C(C)=C4)C(OC)=C6O)=C6C5=O,621,,CHCl3,12589,,,0.44,DMSO,,,,,,"463, 583, 621",10.1016/S0925-4439(01)00050-3
2000,9_5,2-BA-2-DMHB,FALSE,O=C(C=C1OC)C2=C(C3=C4C(NCCCC)=C2O)C1=C(C(OC)=C5)C(C3=C(C(C(C)=O)C(C)=C4)C(OC)=C6O)=C6C5=O,583,733,C6H6,12589,0.0098,,1.44,DMSO,,,,,,"463, 583, 621",10.1016/j.jphotochem.2004.01.013
2001,9_6,2-PMAHB,FALSE,O=C(C=C1OC)C2=C(C3=C4C(NCC5=CC=CC=C5)=C2O)C1=C(C(OC)=C6)C(C3=C(C(C(C)=O)C(C)=C4)C(OC)=C7O)=C7C6=O,579,,CHCl3,15849,,,0.11,CHCl3,,,,,,"458, 579, 628",10.1016/j.jphotobiol.2003.09.001
2002,9_7,11-PMAHB,FALSE,O=C(C=C1OC)C2=C(C3=C4C(OC)=C2O)C1=C(C(OC)=C5)C(C3=C(C(C(C)=C4)=C(C)N6CC7=CC=CC=C7)C6=C8O)=C8C5=O,579,,CHCl3,13804,,,0.1,CHCl3,,,,,,"467, 579, 625",10.1016/j.jphotobiol.2003.09.001
2003,9_8,CHA2HB,FALSE,O=C(C=C1OC)C2=C(C3=C4C5=C2NC6C(CCCC6)N5)C1=C(C(OC)=C7)C(C3=C(C(C(C)=O)C(C)=C4)C(OC)=C8O)=C8C7=O,659,,DMSO,275423,,,0.71,PBS6.2,,,,,,"440, 659",10.1016/j.jphotobiol.2008.09.007
2004,9_9,DMAHB,FALSE,O=C(C=C1OC)C2=C(C3=C4C(NCCCN(C)C)=C2O)C1=C(C(OC)=C5)C(C3=C(C(C(C)=O)C(C)=C4)C(OC)=C6O)=C6C5=O,440,,DMSO,,,,0.38,PBS6.2,,,,,,"440, 600",10.1016/j.jphotobiol.2008.09.007
2005,9_10,MLHB,FALSE,O=C(C=C1OC)C2=C(C3=C4C(NCCN5CCOCC5)=C2O)C1=C(C(OC)=C6)C(C3=C(C(C(C)=O)C(C)=C4)C(OC)=C7O)=C7C6=O,582,725,CHCl3,12303,,,0.63,CHCl3,,,,,,"455, 582",10.1562/0031-8655(2003)078<0411:SACOTN>2.0.CO;2
2006,9_11,DMEHB,FALSE,O=C(C=C1OC)C2=C(C3=C4C(NCCN(C)C)=C2O)C1=C(C(OC)=C5)C(C3=C(C(C(C)=O)C(C)=C4)C(OC)=C6O)=C6C5=O,580,725,CHCl3,13183,,,0.4,CHCl3,,,,,,"454, 580",10.1562/0031-8655(2003)078<0411:SACOTN>2.0.CO;2
2007,9_12,PZHB,FALSE,O=C(C=C1OC)C2=C(C3=C4C(NCCN5CCNCC5)=C2O)C1=C(C(OC)=C6)C(C3=C(C(C(C)=O)C(C)=C4)C(OC)=C7O)=C7C6=O,580,740,CHCl3,10233,,,0.13,CHCl3,,,,,,463， 580,10.1562/0031-8655(2003)078<0411:SACOTN>2.0.CO;2
2008,9_13,DAHB,FALSE,OC1=CC(OC)=C2C(C(C3=C4OC)=C5C6=C(C(C(OC)=C5C(C(C)=NCCCN)=C(C)C3)=O)C(O)=CC(OC)=C26)=C1C4=O,490,670,C6H6,10233,0.072,,0.69,C6H6,,,,,,490， 590， 635,10.1016/j.dyepig.2004.02.010
2009,9_14,1,FALSE,OC1=CC(OC)=C2C(C(C3=C4OC)=C5C6=C(C(C(OC)=C5/C(C(C)=C3)=C(C)/NCCCOC)=O)C(O)=CC(OC)=C26)=C1C4=O,580,,CHCl3,14125,,,0.26,CHCl3,,,,,,460， 580,10.1562/0031-8655(2001)074<0201:SCAPAO>2.0.CO;2
2010,9_15,2,FALSE,OC1=CC(OC)=C2C(C(C3=C4OC)=C5C6=C(C(C(OC)=C5/C(C(C)=C3)=C(C)/NCCCCCCC(O)=O)=O)C(O)=CC(OC)=C26)=C1C4=O,460,,CHCl3,13183,,,0.19,CHCl3,,,,,,460， 580,10.1562/0031-8655(2001)074<0201:SCAPAO>2.0.CO;2
2011,9_16,3,FALSE,OC1=CC(OC)=C2C(C(C3=C4OC)=C5C6=C(C(C(OC)=C5/C(C(C)=C3)=C(C)/NCCCC(O)=O)=O)C(O)=CC(OC)=C26)=C1C4=O,583,,CHCl3,16596,,,0.33,CHCl3,,,,,,460， 583,10.1562/0031-8655(2001)074<0201:SCAPAO>2.0.CO;2
2012,9_17,NSHB,FALSE,O=C(C=C1OC)C2=C(C3=C4C(OC)=C2O)C1=C(C(OC)=C5)C(C3=C(C(C(C)=NCCCS(=O)(O)=O)=C(C)C4)C(OC)=C6O)=C6C5=O,500,,DMSO,19498,,,0.72,C6H6,,,,,,500， 593， 640,10.1016/j.jphotobiol.2008.11.008
2013,9_18,THB,FALSE,OC1=CC(OC)=C2C(C(C3=C4[NH2+]CCS(=O)([O-])=O)=C5C6=C(C(C(OC)=C5C(C(C)=O)C(C)=C3)=O)C(O)=CC(OC)=C26)=C1C4=O,461,,CHCl3,8913,,,0.15,CHCl3,,,,,,461， 582， 635,10.1039%2Fb311023k
2014,9_19,SAHB,FALSE,O=C(C=C1OC)C2=C(C3=C4C(NCCCCCCCCCCCC(O[Na])=O)=C2O)C1=C(C(OC)=C5)C(C3=C(C(C(C)=O)C(C)=C4)C(OC)=C6O)=C6C5=O,460,,CHCl3,6457,,,1.01,C6H6,,,,,,"460,  580",10.1111/j.1751-1097.2010.00711.x
2015,9_19,SAHB,FALSE,O=C(C=C1OC)C2=C(C3=C4C(NCCCCCCCCCCCC(O[Na])=O)=C2O)C1=C(C(OC)=C5)C(C3=C(C(C(C)=O)C(C)=C4)C(OC)=C6O)=C6C5=O,465,,PBS7.4,,,,1.01,C6H6,,,,,,465560,10.1111/j.1751-1097.2010.00711.x
2016,9_20,DMHB,FALSE,O=C(C(SCCCCCCCCCCC(O[Na])=O)=C1OC)C2=C(C3=C4C(OC)=C2O)C1=C(C(OC)=C5SCCCCCCCCCCC(O[Na])=O)C(C3=C(C(C(C)=O)=C(C)C4)C(OC)=C6O)=C6C5=O,526,,CHCl3,8913,,,0.93,C6H6,,,,,,526,10.1111/j.1751-1097.2010.00711.x
2017,9_20,DMHB,FALSE,O=C(C(SCCCCCCCCCCC(O[Na])=O)=C1OC)C2=C(C3=C4C(OC)=C2O)C1=C(C(OC)=C5SCCCCCCCCCCC(O[Na])=O)C(C3=C(C(C(C)=O)C(C)=C4)C(OC)=C6O)=C6C5=O,645,,PBS7.4,,,,0.93,C6H6,,,,,,"595, 645",10.1111/j.1751-1097.2010.00711.x
2018,9_21,1,FALSE,O=C(C=C1OC)C2=C(C3=C4C(NCCCS(=O)(O)=O)=C2O)C1=C(C(OC)=C5)C(C3=C(C(C(C)=O)C(C)=C4)C(OC)=C6O)=C6C5=O,460,,PBS7.4,,,,0.16,C6H6,,,,,,"460, 575",10.1007/s11434-009-0036-3
2019,9_22,2,FALSE,O=C(C=C1OC)C2=C(C3=C4C(NCCCCS(=O)(O)=O)=C2O)C1=C(C(OC)=C5)C(C3=C(C(C(C)=O)C(C)=C4)C(OC)=C6O)=C6C5=O,460,,PBS7.4,,,,0.17,C6H6,,,,,,460. 575,10.1007/s11434-009-0036-3
2020,9_23,CHAHB,FALSE,OC1=CC(OC)=C2C(C(C3=C4NC#CC#CC#C)=C5C6=C(C(C(OC)=C5C(C(C)=O)C(C)=C3)=O)C(O)=CC(OC)=C26)=C1C4=O.[HH].[HH].[HH].[HH].[HH],580,,CHCl3,,,,0.11,CHCl3,,,,,,"580, 620",10.1039/b303293k
2021,9_24,3,FALSE,O=C(C=C1OC)C2=C(C3=C4C(OC)=C2OC)C1=C(C(OC)=C5)C(C3=C(C(C(C)=O)=C(C)C4)C(OC)=C6O)=C6C5=O,422,660,CHCl3,14454,,,,,,,,,,422,10.1021/jo026554x
2022,9_25,4,FALSE,O=C(C=C1OC)C2=C(C3=C4C(OC)=C2OC)C1=C(C(OC)=C5)C(C3=C(C(C(C)=O)=C(C)C4)C(OC)=C6OC)=C6C5=O,432,,CHCl3,16596,,,,,,,,,,432,10.1021/jo026554x
2023,9_26,Cap-HB,FALSE,OC1=CC(OC)=C2C3=C(OC)C=C(NCCCCCC(O)=O)C4=C3C(C5=C(NCCCCCC(O)=O)C4=O)=C6C2=C1C(C(OC)=C6C(C(C)=O)C(C)=C5)=O,623,753,CH2Cl2,13183,0.064,,0.23,DMSO,,,,,,,10.1021/jp066301y
2024,9_27,Gly-HB,FALSE,OC1=CC(OC)=C2C3=C(OC)C=C(N(CCC(COC(C)=O)=N)CCCOC(C[O])=N)C4=C3C(C5=C(NCCCCCC(NCC(NCC(OC)=O)=O)=O)C4=O)=C6C2=C1C(C(OC)=C6C(C(C)=O)C(C)=C5)=O,622,752,CH2Cl2,12023,0.051,,0.23,DMSO,,,,,,,10.1021/jp066301y
2025,9_28,Tyr-HB,FALSE,OC1=CC(OC)=C2C(C(C3=C4NCCCCCC(NC(C(NCC(OC)=O)=O)CC5=CC=C(O)C=C5)=O)=C6C7=C(C(C(OC)=C6C(C(C)=NCCCCCC(NC([H])(C([H])([H])C8=CC=C(O)C=C8)C(NCC(OC)=O)=O)=O)=C(C)C3)=O)C(O)=CC(OC)=C27)=C1C4=O,620,752,CH2Cl2,11482,0.019,,0.15,DMSO,,,,,,,10.1021/jp066301y
2026,9_29,Trp-HB,FALSE,OC1=CC(OC)=C2C(C(C3=C4NCCCCCC(NC(C(NCC(OC)=O)=O)CC5=CNC6=C5C=CC=C6)=O)=C7C8=C(C(C(OC)=C7C(C(C)=NCCCCCC(NC([H])(C([H])([H])C9=CNC%10=C9C=CC=C%10)C(NCC(OC)=O)=O)=O)=C(C)C3)=O)C(O)=CC(OC)=C28)=C1C4=O,619,751,CH2Cl2,10233,0.013,,0.08,DMSO,,,,,,"450, 470, 575, 619",10.1021/jp066301y
2027,9_30,HB-Net,FALSE,OC1=CC(OC)=C2C(C(C3=C4NCCCCCC(OCCCNC(C5=CC(NC(C6=CC([N+]([O-])=O)=CN6C)=O)=CN5C)=O)=O)=C7C8=C(C(C(OC)=C7C(C(C)=O)=C(C)C3)=O)C(O)=CC(OC)=C28)=C1C4=O,572,,CH2Cl2,16000,0.034,,0.15,DMSO,,,,,,"465, 572",10.1021/jp7121467
2028,9_30,HB-Net,FALSE,OC1=CC(OC)=C2C(C(C3=C4NCCCCCC(OCCCNC(C5=CC(NC(C6=CC([N+]([O-])=O)=CN6C)=O)=CN5C)=O)=O)=C7C8=C(C(C(OC)=C7C(C(C)=O)C(C)=C3)=O)C(O)=CC(OC)=C28)=C1C4=O,,800,DMSO,,,,,,,,,,,,10.1021/jp7121467
2029,9_31,DEHB,FALSE,O=C(C(SCCN(C)C)=C1OC)C2=C(C3=C4C(OC)=C2O)C1=C(C(OC)=C5)C(C3=C(C(C(C)=O)=C(C)C4)C(OC)=C6O)=C6C5=O,510,,CHCl3,,,,0.23,DMSO,,,,,,510,10.1039/b616294k
2030,9_32,EHB,FALSE,O=C(C(SCC)=C1OC)C2=C(C3=C4C(OC)=C2O)C1=C(C(OC)=C5)C(C3=C(C(C(C)=O)=C(C)C4)C(OC)=C6O)=C6C5=O,510,,CHCl3,,,,0.23,DMSO,,,,,,,10.1039/b616294k
2031,9_33,MAHB,FALSE,O=C(C(SCC(O)=O)=C1OC)C2=C(C3=C4C(OC)=C2O)C1=C(C(OC)=C5)C(C3=C(C(C(C)=O)=C(C)C4)C(OC)=C6O)=C6C5=O,480,,DMSO:PBS7=1:1,,,,0.22,DMSO,,,,,,480,10.1039/b202439j