,index,name,metal_complex,SMILES,max_absorption_peak,max_emission_peak,solvant_spectrum,molar_extinction_coefficient,quantum_yield_fluorescence,max_phosphorescence_peak,quantum_yield_singlet_oxygen,solvant_quantum_yield,energy_level_exited_triplet_state,energy_level_HUMO,energy_level_LUMO,difference_HOMO_and_LUMO,method_for_HOMO/LUMO,all_absoption_peaks,reference_DOI
1293,3_100,TFP1,TRUE,CCCCC%12(CCCC)C1=C(C%13=C%12C=C(C#CC%18=CC=C(C(C=CC=C%20)=C%20C(CCCC)%19CCCC)C%19=C%18)C=C%13)C=CC(\C(C(C=C6)=N/C6=C4C5=CC%15=C(C%10=C(C(CCCC)%15CCCC)C=C(C#CC%21=CC=C(C(C=CC=C%23)=C%23C(CCCC)%22CCCC)C%22=C%21)C=C%10)C=C5)=C(N7)/C=C/C7=C(C8=CC(C(CCCC)%17CCCC)=C(C%14=C%17C=C(C#CC%24=CC=C(C(C=CC=C%26)=C%26C(CCCC)%25CCCC)C%25=C%24)C=C%14)C=C8)/C3=N/C(C=C3)=C(C9=CC%16=C(C%11=C(C(CCCC)%16CCCC)C=C(C#CC%27=CC=C(C(C=CC=C%29)=C%29C(CCCC)%28CCCC)C%28=C%27)C=C%11)C=C9)\C2=CC=C\4N2)=C1,432,660,toluene,669000,0.24,,0.62,dichloromethane,,,,,,432,10.1039/d1nj01410b
1294,3_101,TFP1`,FALSE,CCCCC3(CCCC)C1=CC(/C(C5=CC=C(/C(C%10=CC=C(C%12=CC=C(C#CC%21=CC=C(C(C=CC=C%23)=C%23C%22)C%22=C%21)C=C%12C(CCCC)%13CCCC)C%13=C%10)=C6/C=CC7=N6)N5)=C4/N=C(\C(C%11=CC=C(C%16=CC=C(C#CC%24=CC=C(C(C=CC=C%26)=C%26C%25)C%25=C%24)C=C%16C(CCCC)%17CCCC)C%17=C%11)=C(C=C9)/N/C9=C7/C8=CC=C(C%14=CC=C(C#CC%18=CC=C(C(C=CC=C%20)=C%20C%19)C%19=C%18)C=C%14C(CCCC)%15CCCC)C%15=C8)C=C4)=CC=C1C2=CC=C(C#CC%27=CC=C(C(C=CC=C%29)=C%29C%28)C%28=C%27)C=C23,431,660,toluene,477000,0.22,,0.66,dichloromethane,,,,,,431,10.1039/d1nj01410b
1295,3_103,"5-(4-carboxyphenyl)-10,15,20-triphenylporphyrin (1b)",FALSE,OC(C(C=C9)=CC=C9\C(C(C=C5)=N/C5=C3C4=CC=CC=C4)=C(N6)/C=C/C6=C(C7=CC=CC=C7)/C2=N/C(C=C2)=C(C8=CC=CC=C8)\C1=CC=C\3N1)=O,647,,MeOH,,0.04,,0.63,MeOH,,,,,,647,10.1021/jm301509n
1296,3_104,1c,TRUE,[Gly-Asn-Asn-Arg-Pro-Val-Tyr-lle-Pro-Gln-Pro-Arg-Pro-Pro-His-Pro-Arg-Leu-OH]C(C(C=C9)=CC=C9\C(C(C=C5)=N/C5=C3C4=CC=CC=C4)=C(N6)/C=C/C6=C(C7=CC=CC=C7)/C2=N/C(C=C2)=C(C8=CC=CC=C8)\C1=CC=C\3N1)=O,647,,MeOH,,0.05,,0.7,MeOH,,,,,,647,10.1021/jm301509n
1297,3_105,1d,TRUE,[Gly-Pro-Arg-Pro-Pro-His-Pro-Arg-Leu-OH]C(C(C=C9)=CC=C9\C(C(C=C5)=N/C5=C3C4=CC=CC=C4)=C(N6)/C=C/C6=C(C7=CC=CC=C7)/C2=N/C(C=C2)=C(C8=CC=CC=C8)\C1=CC=C\3N1)=O,646,,MeOH,,0.44,,0.66,MeOH,,,,,,646,10.1021/jm301509n
1298,3_106," 9-(glutaric meth-ylesteramide)-2,7,12,17-tetraphenylporphycene",FALSE,O=C(CCCC(OC)=O)N\C(/C=C(N6)/C(C7=CC=CC=C7)=C\C6=C4/C=C(C8=CC=CC=C8)C(\C=C5)=N4)=C1N=C(C3=CC(C9=CC=CC=C9)=C/5N3)C=C/1C2=CC=CC=C2,715,,MeOH,,0.03,,0.26,MeOH,,,,,,715,10.1021/jm301509n
1299,3_107,2c,TRUE,[Gly-Asn-Asn-Arg-Pro-Val-Tyr-lle-Pro-Gln-Pro-Arg-Pro-Pro-His-Pro-Arg-Leu-OH]C(CCCC(N/C(/C=C(N6)/C(C7=CC=CC=C7)=C\C6=C4/C=C(C8=CC=CC=C8)C(\C=C5)=N4)=C1/N=C(C3=CC(C9=CC=CC=C9)=C/5N3)C=C1C2=CC=CC=C2)=O)=O,697,,MeOH,,0.016,,0.14,MeOH,,,,,,697,10.1021/jm301509n
1300,3_108,ris-N-methylpyridinium iodide (4b),FALSE,OC(C(C=C9)=CC=C9\C(C(C=C5)=N/C5=C3C4=CC=[N+](C)C=C4)=C(N6)/C=C/C6=C(C7=CC=[N+](C)C=C7)/C2=N/C(C=C2)=C(C8=CC=[N+](C)C=C8)\C1=CC=C\3N1)=O,656,,MeOH,,0.022,,0.69,MeOH,,,,,,656,10.1021/jm301509n
1301,3_109,4e,TRUE,[Gly-Asn-Asn-Arg-Pro-Val-Tyr-lle-Pro-Gln-Pro-Arg-Pro-Pro-His(NCH3)-Pro-Arg-Leu-OH]C(C(C=C9)=CC=C9\C(C(C=C5)=N/C5=C3C4=CC=[N+](C)C=C4)=C(N6)/C=C/C6=C(C7=CC=[N+](C)C=C7)/C2=N/C(C=C2)=C(C8=CC=[N+](C)C=C8)\C1=CC=C\3N1)=O,655,,MeOH,,0.024,,0.67,MeOH,,,,,,655,10.1021/jm301509n
1302,3_110,TPP-OC6Br,FALSE,BrCCCCCCOC(C=C8)=CC=C8\C(C(C=C5)=N/C5=C3C4=CC=CC=C4)=C(N6)/C=C/C6=C(C9=CC=CC=C9)/C2=N/C(C=C2)=C(C7=CC=CC=C7)\C1=CC=C\3N1,420,654,CHCl3 ,,0.094,,0.61,CHCl3,,,,,,"420, 516, 550, 591",10.1142/S1088424613501101
1303,3_111,ZnTPP-OC6Br,TRUE,BrCCCCCCOC(C=C9)=CC=C9/C(C(C=C7)=N/C7=C5C6=CC=CC=C6)=C2C=C/C3=C(C%10=CC=CC=C%10)/C4=N/C(C=C4)=C(C8=CC=CC=C8)\C1=CC=C\5N1[Zn]N/23,420,597,CHCl3 ,,0.029,,0.53,CHCl3,,,,,,"420, 549",10.1142/S1088424613501101
1304,3_112,TPP-OC6-Py-OH,FALSE,OC(C=C%10)=CC=[N+]%10CCCCCCOC(C=C8)=CC=C8\C(C(C=C5)=N/C5=C3C4=CC=CC=C4)=C(N6)/C=C/C6=C(C9=CC=CC=C9)/C2=N/C(C=C2)=C(C7=CC=CC=C7)\C1=CC=C\3N1,420,654,CHCl3 ,,0.096,,0.46,CHCl3,,,,,," 420, 516, 551, 591",10.1142/S1088424613501101
1305,3_113,ZnTPP-OC6-Py-OH,TRUE,OC(C=C%11)=CC=[N+]%11CCCCCCOC(C=C9)=CC=C9/C(C(C=C7)=N/C7=C5C6=CC=CC=C6)=C2C=C/C3=C(C%10=CC=CC=C%10)/C4=N/C(C=C4)=C(C8=CC=CC=C8)\C1=CC=C\5N1[Zn]N/23,421,597,CHCl3 ,,0.037,,0.36,CHCl3,,,,,,"421, 549",10.1142/S1088424613501101
1306,3_114,TPEGPP,FALSE,COCCOCCOCCOC(C=C8)=CC=C8\C(C(C=C5)=N/C5=C3C4=CC=C(OCCOCCOCCOC)C=C4)=C(N6)/C=C/C6=C(C9=CC=C(OCCOCCOCCOC)C=C9)/C2=N/C(C=C2)=C(C7=CC=C(OCCOCCOCCOC)C=C7)\C1=CC=C\3N1,422,658,CHCl3 ,,0.13,,0.36,CHCl3,,,,,,"422, 518, 555, 593",10.1142/S1088424613501101
1307,3_115,p-OHTPEGPP,FALSE,OC(C=C8)=CC=C8\C(C(C=C5)=N/C5=C3C4=CC=C(OCCOCCOCCOC)C=C4)=C(N6)/C=C/C6=C(C9=CC=C(OCCOCCOCCOC)C=C9)/C2=N/C(C=C2)=C(C7=CC=C(OCCOCCOCCOC)C=C7)\C1=CC=C\3N1,422,657,CHCl3 ,,0.098,,0.33,CHCl3,,,,,,"422, 523, 554, 594",10.1142/S1088424613501101
1308,3_116,TPEGPP-PEG-I,FALSE,[-]OCCOCCOCCOC(C=C8)=CC=C8\C(C(C=C5)=N/C5=C3C4=CC=C(OCCOCCOCCOC)C=C4)=C(N6)/C=C/C6=C(C9=CC=C(OCCOCCOCCOC)C=C9)/C2=N/C(C=C2)=C(C7=CC=C(OCCOCCOCCOC)C=C7)\C1=CC=C\3N1,422,659,CHCl3 ,,0.096,,0.33,CHCl3,,,,,,"422, 520, 556, 594",10.1142/S1088424613501101
1309,3_117,TPEGPP-PEG-Py-OH,FALSE,COCCOCCOCCOC(C=C%10)=CC=C%10/C(C2=CC=C(\C(C7=CC=C(OCCOCCOCCOC)C=C7)=C3/N=C(\C(C8=CC=C(OCCOCCOCCOC)C=C8)=C(C=C6)/N/C6=C4C5=CC=C(OCCOCCOCCO[N+]9=CC=C(O)C=C9)C=C5)C=C3)N2)=C1C=CC\4=N/1,422,658,CHCl3 ,,0.098,,0.3,CHCl3,,,,,,"422, 520, 556, 595",10.1142/S1088424613501101
1310,3_118,por1,FALSE,CC(C=C8)=CC=C8/C(C2=CC=C(\C=C3/N=C(\C(C7=CC=C(C)C=C7)=C(C=C6)/N/C6=C4C5N=C(C(C=CC=N%11)=C%11C%10=C9C=CC=N%10)C9N5CCCC)C=C3)N2)=C1C=CC\4=N/1,415,,CH2Cl2,,,,2.16,DPBF,,,,,,"253, 285, 415, 510, 545, 586, 642",10.1002/aoc.4468
1311,3_119,por2,TRUE,CC(C=C%11)=CC=C%11C3=C1C=CC6=[N@@]1[Cu@@]([N@@]4=C9C=CC4=C5)(N8C(C=CC8=C9C%10=CC=C(C)C=C%10)=C6C7N=C(C%15=C%14C%13=C%12C=CC=[N@@]%13[Ru]([N@@]%16=CC=CC%17=C%16C([N@@]%18=CC=C%19)=C%19C=C%17)%18([N@]%20=CC=CC%21=C%20C%22=C(C=CC=[N@]%22%23)C=C%21)%23[N@@]%14=CC=C%15)C%12N7CCCC)N2C5=CC=C23,411,,CH2Cl2,,,,0.41,DPBF,,,,,,"262, 411, 534,
565.",10.1002/aoc.4468
1312,3_120,por3,TRUE,CC(C=C8)=CC=C8/C(C2=CC=C(\C=C3/N=C(\C(C7=CC=C(C)C=C7)=C(C=C6)/N/C6=C4C5N=C(C%12=C%11C%10=C9C=CC=[N@@]%10[Ru]([N@@]%13=CC=CC%14=C%13C([N@@]%15=CC=C%16)=C%16C=C%14)%15([N@]%17=CC=CC%18=C%17C%19=C(C=CC=[N@]%19%20)C=C%18)%20[N@@]%11=CC=C%12)C9N5CCCC)C=C3)N2)=C1C=CC\4=N/1,415,,CH2Cl2,,,,2.32,DPBF,,,,,,"263, 415, 511, 545, 584,
640. ",10.1002/aoc.4468
1313,3_123,TCPP,FALSE,OC(C(C=C7)=CC=C7/C(C2=CC=C(/C(C9=CC=C(C(O)=O)C=C9)=C3/C=CC4=N3)N2)=C1/N=C(\C(C8=CC=C(C(O)=O)C=C8)=C(C=C6)/N/C6=C4/C5=CC=C(C(O)=O)C=C5)C=C1)=O,417,650,DMSO,74000,0.25,,0.58,DMA,,,,,,421,10.1007/s10895-018-2264-x
1314,3_123,TCPP,FALSE,OC(C(C=C7)=CC=C7/C(C2=CC=C(/C(C9=CC=C(C(O)=O)C=C9)=C3/C=CC4=N3)N2)=C1/N=C(\C(C8=CC=C(C(O)=O)C=C8)=C(C=C6)/N/C6=C4/C5=CC=C(C(O)=O)C=C5)C=C1)=O,421,651,"Water: Ethanol (1:1, v/v)",76000,0.21,,0.58,DMA,,,,,,420,10.1007/s10895-018-2264-x
1315,3_124,a,FALSE,O=C(NC8=CC=CC=C8)C(C=C7)=CC=C7\C(C2=CC=C(/C(C%12=CC=C(C(NC%13=CC=CC=C%13)=O)C=C%12)=C3/C=CC4=N3)N2)=C1N=C(\C(C9=CC=C(C(NC%10=CC=CC=C%10)=O)C=C9)=C(C=C6)/N/C6=C4/C5=CC=C(C(NC%11=CC=CC=C%11)=O)C=C5)C=C/1,420,651,DMSO,177000,0.42,,0.39,DMA,,,,,,419,10.1007/s10895-018-2264-x
1316,3_124,a,FALSE,O=C(NC8=CC=CC=C8)C(C=C7)=CC=C7\C(C2=CC=C(/C(C%12=CC=C(C(NC%13=CC=CC=C%13)=O)C=C%12)=C3/C=CC4=N3)N2)=C1N=C(\C(C9=CC=C(C(NC%10=CC=CC=C%10)=O)C=C9)=C(C=C6)/N/C6=C4/C5=CC=C(C(NC%11=CC=CC=C%11)=O)C=C5)C=C/1,419,650,"Water: Ethanol (1:1, v/v)",164000,0.34,,0.39,DMA,,,,,,422,10.1007/s10895-018-2264-x
1317,3_125,b,FALSE,O=C(NCCO)C(C=C7)=CC=C7\C(C2=CC=C(/C(C9=CC=C(C(NCCO)=O)C=C9)=C3/C=CC4=N3)N2)=C1N=C(\C(C8=CC=C(C(NCCO)=O)C=C8)=C(C=C6)/N/C6=C4/C5=CC=C(C(NCCO)=O)C=C5)C=C/1,422,654,DMSO,211000,0.52,,0.61,DMA,,,,,,419,10.1007/s10895-018-2264-x
1318,3_125,b,FALSE,O=C(NCCO)C(C=C7)=CC=C7\C(C2=CC=C(/C(C9=CC=C(C(NCCO)=O)C=C9)=C3/C=CC4=N3)N2)=C1N=C(\C(C8=CC=C(C(NCCO)=O)C=C8)=C(C=C6)/N/C6=C4/C5=CC=C(C(NCCO)=O)C=C5)C=C/1,419,650,"Water: Ethanol (1:1, v/v)",205000,0.46,,0.61,DMA,,,,,,419,10.1007/s10895-018-2264-x
1319,3_126,c,FALSE,O=C(NC8=CC=CC=C8)C(C=C7)=CC=C7\C(C2=CC=C(/C(C%12=CC=C(C(NC%13=CC=CC=N%13)=O)C=C%12)=C3/C=CC4=N3)N2)=C1N=C(\C(C9=CC=C(C(NC%10=CC=CC=N%10)=O)C=C9)=C(C=C6)/N/C6=C4/C5=CC=C(C(NC%11=CC=CC=N%11)=O)C=C5)C=C/1.[N],419,650,DMSO,181000,0.39,,0.32,DMA,,,,,,417,10.1007/s10895-018-2264-x
1320,3_126,c,FALSE,O=C(NC8=CC=CC=C8)C(C=C7)=CC=C7\C(C2=CC=C(/C(C%12=CC=C(C(NC%13=CC=CC=N%13)=O)C=C%12)=C3/C=CC4=N3)N2)=C1N=C(\C(C9=CC=C(C(NC%10=CC=CC=N%10)=O)C=C9)=C(C=C6)/N/C6=C4/C5=CC=C(C(NC%11=CC=CC=N%11)=O)C=C5)C=C/1.[N],417,649,"Water: Ethanol (1:1, v/v)",155000,0.33,,0.32,DMA,,,,,,418,10.1007/s10895-018-2264-x
1321,3_127,d,FALSE,O=C(NNC(C%11=CC=CC=C%11)=O)C(C=C7)=CC=C7\C(C2=CC=C(/C(C9=CC=C(C(NNC(C%12=CC=CC=C%12)=O)=O)C=C9)=C3/C=CC4=N3)N2)=C1N=C(\C(C8=CC=C(C(NNC(C%10=CC=CC=C%10)=O)=O)C=C8)=C(C=C6)/N/C6=C4/C5=CC=C(C(NNC(C%13=CC=CC=C%13)=O)=O)C=C5)C=C/1,418,652,DMSO,164000,0.35,,0.34,DMA,,,,,,419,10.1007/s10895-018-2264-x
1322,3_127,d,FALSE,O=C(NNC(C%11=CC=CC=C%11)=O)C(C=C7)=CC=C7\C(C2=CC=C(/C(C9=CC=C(C(NNC(C%12=CC=CC=C%12)=O)=O)C=C9)=C3/C=CC4=N3)N2)=C1N=C(\C(C8=CC=C(C(NNC(C%10=CC=CC=C%10)=O)=O)C=C8)=C(C=C6)/N/C6=C4/C5=CC=C(C(NNC(C%13=CC=CC=C%13)=O)=O)C=C5)C=C/1,419,649,"Water: Ethanol (1:1, v/v)",120000,0.23,,0.34,DMA,,,,,,421,10.1007/s10895-018-2264-x
1323,3_128,e,FALSE,O=C(NNC(C)=O)C(C=C7)=CC=C7\C(C2=CC=C(/C(C9=CC=C(C(NNC(C)=O)=O)C=C9)=C3/C=CC4=N3)N2)=C1N=C(\C(C8=CC=C(C(NNC(C)=O)=O)C=C8)=C(C=C6)/N/C6=C4/C5=CC=C(C(NNC(C)=O)=O)C=C5)C=C/1,421,652,DMSO,108000,0.41,,0.59,DMA,,,,,,419,10.1007/s10895-018-2264-x
1324,3_128,e,FALSE,O=C(NNC(C)=O)C(C=C7)=CC=C7\C(C2=CC=C(/C(C9=CC=C(C(NNC(C)=O)=O)C=C9)=C3/C=CC4=N3)N2)=C1N=C(\C(C8=CC=C(C(NNC(C)=O)=O)C=C8)=C(C=C6)/N/C6=C4/C5=CC=C(C(NNC(C)=O)=O)C=C5)C=C/1,419,650,"Water: Ethanol (1:1, v/v)",138000,0.31,,0.59,DMA,,,,,,418,10.1007/s10895-018-2264-x
1325,3_129,f,FALSE,O=C(NNC(S%10=NC(C=CC=C%11)=C%11N%10)=O)C(C=C7)=CC=C7\C(C2=CC=C(/C(C9=CC=C(C(NNC(S%12=NC(C=CC=C%13)=C%13N%12)=O)=O)C=C9)=C3/C=CC4=N3)N2)=C1N=C(\C(C8=CC=C(C(NNC(S%16=NC(C=CC=C%17)=C%17N%16)=O)=O)C=C8)=C(C=C6)/N/C6=C4/C5=CC=C(C(NNC(S%14=NC(C=CC=C%15)=C%15N%14)=O)=O)C=C5)C=C/1,418,653,DMSO,83000,0.28,,0.27,DMA,,,,,,418,10.1007/s10895-018-2264-x
1326,3_129,f,FALSE,O=C(NNC(S%10=NC(C=CC=C%11)=C%11N%10)=O)C(C=C7)=CC=C7\C(C2=CC=C(/C(C9=CC=C(C(NNC(S%12=NC(C=CC=C%13)=C%13N%12)=O)=O)C=C9)=C3/C=CC4=N3)N2)=C1N=C(\C(C8=CC=C(C(NNC(S%16=NC(C=CC=C%17)=C%17N%16)=O)=O)C=C8)=C(C=C6)/N/C6=C4/C5=CC=C(C(NNC(S%14=NC(C=CC=C%15)=C%15N%14)=O)=O)C=C5)C=C/1,418,651,"Water: Ethanol (1:1, v/v)",89000,0.23,,0.27,DMA,,,,,,418,10.1007/s10895-018-2264-x
1327,3_130,TCPPSO3H,FALSE,ClC1=C(S(=O)(O)=O)C=CC=C1/C(C3=CC=C(\C(C9=CC=CC(S(=O)(O)=O)=C9Cl)=C4/N=C(\C(C8=CC=CC(S(=O)(O)=O)=C8Cl)=C(C=C7)/N/C7=C5C6=CC=CC(S(=O)(O)=O)=C6Cl)C=C4)N3)=C2C=CC\5=N/2,413,,PBS,160000,0.008,,0.74,H2O,,,,,,314 513 549 581 633 ,10.1111/j.1751-1097.2007.00073.x
1328,3_131,"5(4′-carboxyphenyl)-
10,15,20-triphenylporphyrin (1a)",FALSE,O=C(O)C(C=C9)=CC=C9\C(C(C=C5)=N/C5=C3C4=CC=CC=C4)=C(N6)/C=C/C6=C(C7=CC=CC=C7)/C2=N/C(C=C2)=C(C8=CC=CC=C8)\C1=CC=C\3N1,414,647,MeOH,933254,0.04,,0.63,MeOH,,,,,,"414    512    547    589    643
  ",10.1021/jm401653r
1329,3_131,"5(4′-carboxyphenyl)-
10,15,20-triphenylporphyrin (1a)",FALSE,O=C(O)C(C=C9)=CC=C9\C(C(C=C5)=N/C5=C3C4=CC=CC=C4)=C(N6)/C=C/C6=C(C7=CC=CC=C7)/C2=N/C(C=C2)=C(C8=CC=CC=C8)\C1=CC=C\3N1,414,,PBS,,,,0.63,PBS,,,,,,"414    512    547    589    643
1330,3_132,1b,TRUE,O=C([Gly-lle-Gly-Lys-Phe-Leu-His-Ser-Ala-Lys-Lys-Phe-Gly-Lys-Ala-Phe-Val-Gly-Phe-lle-Leu-Asn-Ser-OH])C(C=C9)=CC=C9\C(C(C=C5)=N/C5=C3C4=CC=CC=C4)=C(N6)/C=C/C6=C(C7=CC=CC=C7)/C2=N/C(C=C2)=C(C8=CC=CC=C8)\C1=CC=C\3N1,414,647,MeOH,933254,0.056,,0.68,MeOH,,,,,,"414    512    547    589    643
1331,3_132,1b,TRUE,O=C([Gly-lle-Gly-Lys-Phe-Leu-His-Ser-Ala-Lys-Lys-Phe-Gly-Lys-Ala-Phe-Val-Gly-Phe-lle-Leu-Asn-Ser-OH])C(C=C9)=CC=C9\C(C(C=C5)=N/C5=C3C4=CC=CC=C4)=C(N6)/C=C/C6=C(C7=CC=CC=C7)/C2=N/C(C=C2)=C(C8=CC=CC=C8)\C1=CC=C\3N1,414,651,PBS,,0.01,,0.12,PBS,,,,,,"414    512    547    589    643
1332,3_133,1c,TRUE,O=C([Gly-Thr-Arg-Ser-Ser-Arg-Ala-Gly-Leu-Gln-Phe-Pro-Val-Gly-Arg-Val-His-Arg-Leu-Leu-Arg-Lys-OH])C(C=C9)=CC=C9\C(C(C=C5)=N/C5=C3C4=CC=CC=C4)=C(N6)/C=C/C6=C(C7=CC=CC=C7)/C2=N/C(C=C2)=C(C8=CC=CC=C8)\C1=CC=C\3N1,414,647,MeOH,295121,0.052,,0.65,MeOH,,,,,,"414    512    546    586    645
1333,3_133,1c,TRUE,O=C([Gly-Thr-Arg-Ser-Ser-Arg-Ala-Gly-Leu-Gln-Phe-Pro-Val-Gly-Arg-Val-His-Arg-Leu-Leu-Arg-Lys-OH])C(C=C9)=CC=C9\C(C(C=C5)=N/C5=C3C4=CC=CC=C4)=C(N6)/C=C/C6=C(C7=CC=CC=C7)/C2=N/C(C=C2)=C(C8=CC=CC=C8)\C1=CC=C\3N1,414,650,PBS,,0.008,,0.09,PBS,,,,,,"414    512    546    586    645
1334,3_134,"5 ( 4′-carboxyphenyl)-
10,15,20-tripyridylporphyrin (2a)",FALSE,O=C(O)C(C=C9)=CC=C9\C(C(C=C5)=N/C5=C3C4=CC=[N+](C)C=C4)=C(N6)/C=C/C6=C(C7=CC=[N+](C)C=C7)/C2=N/C(C=C2)=C(C8=CC=[N+](C)C=C8)\C1=CC=C\3N1,425,65,MeOH,64565,0.022,,0.69,MeOH,,,,,,"425   520   560   587   649
 ",10.1021/jm401653r
1335,3_134,"5 ( 4′-carboxyphenyl)-
10,15,20-tripyridylporphyrin (2a)",FALSE,O=C(O)C(C=C9)=CC=C9\C(C(C=C5)=N/C5=C3C4=CC=[N+](C)C=C4)=C(N6)/C=C/C6=C(C7=CC=[N+](C)C=C7)/C2=N/C(C=C2)=C(C8=CC=[N+](C)C=C8)\C1=CC=C\3N1,425,675,PBS,,0.008,,0.73,PBS,,,,,,"425   520   560   587   649
1336,3_135,2d,TRUE,O=C([Gly-lle-Gly-Lys-Phe-Leu-His(NCH3)-Ser-Ala-Lys-Lys-Phe-Gly-Lys-Ala-Phe-lle-Leu-Asn-Ser-OH])C(C=C9)=CC=C9\C(C(C=C5)=N/C5=C3C4=CC=[N+](C)C=C4)=C(N6)/C=C/C6=C(C7=CC=[N+](C)C=C7)/C2=N/C(C=C2)=C(C8=CC=[N+](C)C=C8)\C1=CC=C\3N1,425,654,H2O,64565,0.025,,0.76,MeOH,,,,,,"425   520   560   587   649
1337,3_135,2d,TRUE,O=C([Gly-lle-Gly-Lys-Phe-Leu-His(NCH3)-Ser-Ala-Lys-Lys-Phe-Gly-Lys-Ala-Phe-lle-Leu-Asn-Ser-OH])C(C=C9)=CC=C9\C(C(C=C5)=N/C5=C3C4=CC=[N+](C)C=C4)=C(N6)/C=C/C6=C(C7=CC=[N+](C)C=C7)/C2=N/C(C=C2)=C(C8=CC=[N+](C)C=C8)\C1=CC=C\3N1,425,658,PBS,,0.014,,0.65,PBS,,,,,,"425   520   560   587   649
1338,3_136,Rut1,TRUE,C[c@]1cc[c@@](C(C)C)cc1.Cl[Ru]([N]2=CC=CC(/C(C4=CC=C(/C(C9=CC=CC=C9)=C5/C=CC6=N5)N4)=C3/N=C(\C(C%10=CC=CC=C%10)=C(C=C8)/N/C8=C6/C7=CC=CC=C7)C=C3)=C2)(Cl)c,415,647,EtOH,,0.07,,0.53,ethanol,,,,,,415 514 546 587 649,10.1016/j.jphotobiol.2012.08.012
1339,3_137,Rut4,TRUE,C[c@]1cc[c@@](C(C)C)cc1.C[c@]2cc[c@@](C(C)C)cc2.Cl[Ru]([N]3=CC=CC(/C(C5=CC=C(/C(C%10=C[N]([Ru](Cl)(Cl)c)=CC=C%10)=C6/C=CC7=N6)N5)=C4/N=C(\C(C%11=C[N]([Ru](Cl)(Cl)c)=CC=C%11)=C(C=C9)/N/C9=C7/C8=C[N]([Ru](Cl)(Cl)c)=CC=C8)C=C4)=C3)(Cl)c.C[c@]%12cc[c@@](C(C)C)cc%12.C[c@]%13cc[c@@](C(C)C)cc%13,415,646,EtOH,,0.05,,0.57,ethanol,,,,,,415 514 546 587 649,10.1016/j.jphotobiol.2012.08.012
1340,3_138,"5,10,15,20-Tetrakis-(N-methyl-4-pyridyl)-21,23H-
porphyrin (1)",FALSE,C[N+](C=C9)=CC=C9/C(C2=CC=C(\C(C8=CC=[N+](C)C=C8)=C3/N=C(\C(C7=CC=[N+](C)C=C7)=C(C=C6)/N/C6=C4C5=CC=[N+](C)C=C5)C=C3)N2)=C1C=CC\4=N/1.[I-].[I-].[I-].[I-],418,654,MeOH,24547,,,0.25,methanol,,,,,, 418  527 558  629  690  ,10.1016/j.dyepig.2009.07.008
1341,3_138,"5,10,15,20-Tetrakis-(N-methyl-4-pyridyl)-21,23H-
porphyrin (1)",FALSE,C[N+](C=C9)=CC=C9/C(C2=CC=C(\C(C8=CC=[N+](C)C=C8)=C3/N=C(\C(C7=CC=[N+](C)C=C7)=C(C=C6)/N/C6=C4C5=CC=[N+](C)C=C5)C=C3)N2)=C1C=CC\4=N/1.[I-].[I-].[I-].[I-],419,656,H2O,154882,,,0.25,methanol,,,,,,419  517  552 585 646 ,10.1016/j.dyepig.2009.07.008
1342,3_139,"5-(4-Hydroxyphenyl)-10,15,20-tri-(N-methyl-4-pyridyl)-
21,23H-porphyrin (2)",FALSE,OC(C=C9)=CC=C9\C(C2=CC=C(/C(C7=CC=[N+](C)C=C7)=C3/C=CC4=N3)N2)=C1N=C(\C(C8=CC=[N+](C)C=C8)=C(C=C6)/N/C6=C4/C5=CC=[N+](C)C=C5)C=C/1.[I-].[I-].[I-],426,652,MeOH,74131,,,0.64,methanol,,,,,,426 522 556 592 652 ,10.1016/j.dyepig.2009.07.008
1343,3_139,"5-(4-Hydroxyphenyl)-10,15,20-tri-(N-methyl-4-pyridyl)-
21,23H-porphyrin (2)",FALSE,OC(C=C9)=CC=C9\C(C2=CC=C(/C(C7=CC=[N+](C)C=C7)=C3/C=CC4=N3)N2)=C1N=C(\C(C8=CC=[N+](C)C=C8)=C(C=C6)/N/C6=C4/C5=CC=[N+](C)C=C5)C=C/1.[I-].[I-].[I-],424,664,H2O,147911,,,0.64,methanol,,,,,,424  521  561  586  646 ,10.1016/j.dyepig.2009.07.008
1344,3_140,"5,10-Di-(N-methyl-4-pyridyl)-15,20-(4-hydroxyphenyl)-
21,23H-porphyrin (3)",FALSE,OC(C=C9)=CC=C9/C(C4=N/C(C=C4)=C2C3=CC=C(O)C=C3)=C(C=C6)/N/C6=C(C8=CC=[N+](C)C=C8)\C(C=C5)=N/C5=C(C7=CC=[N+](C)C=C7)\C1=CC=C\2N1.[I-].[I-],423,656,MeOH,141254,,,0.44,methanol,,,,,,423  519  558  592  651 ,10.1016/j.dyepig.2009.07.008
1345,3_140,"5,10-Di-(N-methyl-4-pyridyl)-15,20-(4-hydroxyphenyl)-
21,23H-porphyrin (3)",FALSE,OC(C=C9)=CC=C9/C(C4=N/C(C=C4)=C2C3=CC=C(O)C=C3)=C(C=C6)/N/C6=C(C8=CC=[N+](C)C=C8)\C(C=C5)=N/C5=C(C7=CC=[N+](C)C=C7)\C1=CC=C\2N1.[I-].[I-],426,662,H2O,194984,,,0.44,methanol,,,,,, 426  523 566  593  655 ,10.1016/j.dyepig.2009.07.008
1346,3_141,"5-(N-Methyl-4-pyridyl)-10,15,20-tri-(4-hydroxyphenyl)-
21,23H-porphyrin (4)",FALSE,OC(C=C9)=CC=C9\C(C(C=C5)=N/C5=C3C4=CC=[N+](C)C=C4)=C(N6)/C=C/C6=C(C7=CC=C(O)C=C7)/C2=N/C(C=C2)=C(C8=CC=C(O)C=C8)\C1=CC=C\3N1.[I-],418,656,MeOH,301995,,,0.45,methanol,,,,,,418 516  550  591  650,10.1016/j.dyepig.2009.07.008
1347,3_141,"5-(N-Methyl-4-pyridyl)-10,15,20-tri-(4-hydroxyphenyl)-
21,23H-porphyrin (4)",FALSE,OC(C=C9)=CC=C9\C(C(C=C5)=N/C5=C3C4=CC=[N+](C)C=C4)=C(N6)/C=C/C6=C(C7=CC=C(O)C=C7)/C2=N/C(C=C2)=C(C8=CC=C(O)C=C8)\C1=CC=C\3N1.[I-],423,654,H2O,77625,,,0.45,methanol,,,,,,423 518  553  595  648 ,10.1016/j.dyepig.2009.07.008
1348,3_142,"5,10,15,20-Tetrakis-(4-hydroxyphenyl)-21,23H-porphyrin (5)",FALSE,OC(C=C9)=CC=C9/C(C2=CC=C(\C(C8=CC=C(O)C=C8)=C3/N=C(\C(C7=CC=C(O)C=C7)=C(C=C6)/N/C6=C4C5=CC=C(O)C=C5)C=C3)N2)=C1C=CC\4=N/1,417,606,MeOH,354813,,,0.56,methanol,,,,,,417  512  551  590 643,10.1016/j.dyepig.2009.07.008
1349,3_142,"5,10,15,20-Tetrakis-(4-hydroxyphenyl)-21,23H-porphyrin (5)",FALSE,OC(C=C9)=CC=C9/C(C2=CC=C(\C(C8=CC=C(O)C=C8)=C3/N=C(\C(C7=CC=C(O)C=C7)=C(C=C6)/N/C6=C4C5=CC=C(O)C=C5)C=C3)N2)=C1C=CC\4=N/1,434,654,H2O,81283,,,0.56,methanol,,,,,,434 526  564  607 ,10.1016/j.dyepig.2009.07.008
1350,3_143,"5-(4-Hexadecyloxyphenyl)-10,15,20-tri(4-pyridyl)
porphyrin (1).",FALSE,CCCCCCCCCCCCCCCCOC(C=C9)=CC=C9\C(C(C=C5)=N/C5=C3C4=CC=NC=C4)=C(N6)/C=C/C6=C(C7=CC=NC=C7)/C2=N/C(C=C2)=C(C8=CC=NC=C8)\C1=CC=C\3N1,420,420,chloroform,213796,0.09,,0.61,toluene ,,,,,,420   514   549   591   648  ,10.1142/S1088424615501047
1351,3_144,"5-(4-Methoxycarbonylphenyl)-10,15,20-tri(4-pyri-
dyl)porphyrin (2).",FALSE,O=C(C(C=C9)=CC=C9\C(C(C=C5)=N/C5=C3C4=CC=NC=C4)=C(N6)/C=C/C6=C(C7=CC=NC=C7)/C2=N/C(C=C2)=C(C8=CC=NC=C8)\C1=CC=C\3N1)OC,419,420,chloroform,8709636,0.1,,0.6,toluene ,,,,,,419   513  547  588   645  ,10.1142/S1088424615501047
1352,3_145,"5-(4-Hexadecyloxycarbonylphenyl)-10,15,20-tri(4-
pyridyl)porphyrin (3).",FALSE,O=C(C(C=C9)=CC=C9\C(C(C=C5)=N/C5=C3C4=CC=NC=C4)=C(N6)/C=C/C6=C(C7=CC=NC=C7)/C2=N/C(C=C2)=C(C8=CC=NC=C8)\C1=CC=C\3N1)OCCCCCCCCCCCCCCCC,417,420,chloroform,323594,0.08,,0.61,toluene ,,,,,,417   513   548  588 643  ,10.1142/S1088424615501047
1353,3_146,"5-(4-Octadecyloxycarbonylphenyl)-10,15,20-tri(4-
pyridyl)porphyrin (4). ",FALSE,O=C(C(C=C9)=CC=C9\C(C(C=C5)=N/C5=C3C4=CC=NC=C4)=C(N6)/C=C/C6=C(C7=CC=NC=C7)/C2=N/C(C=C2)=C(C8=CC=NC=C8)\C1=CC=C\3N1)OCCCCCCCCCCCCCCCCCC,419,420,chloroform,537032,0.08,,0.61,toluene ,,,,,,419  513   546  589  645  ,10.1142/S1088424615501047
1354,3_147,"5-(4-Hexadecanamidophenyl)-10,15,20-tri(4-
pyridyl)porphyrin (5) ",FALSE,O=C(C#CC#CC#CC#CC#CC#CC#CC)NC(C=C9)=CC=C9\C(C(C=C5)=N/C5=C3C4=CC=NC=C4)=C(N6)/C=C/C6=C(C7=CC=NC=C7)/C2=N/C(C=C2)=C(C8=CC=NC=C8)\C1=CC=C\3N1.[HH].[HH].[HH].[HH].[HH].[HH].[HH].[HH].[HH].[HH].[HH].[HH].[HH].[HH].[HH],420,420,chloroform,407380,0.08,,0.59,toluene ,,,,,,419  513   546  589  645  ,10.1142/S1088424615501047
1355,3_148,"N-[5-(4-Carbonylphenyl)-10,15,20-tri(4-pyridyl)
porphyrin]-N,N′-dicyclohexylurea (6).",FALSE,O=C(N(C(NC%11CCCCC%11)=O)C%10CCCCC%10)C(C=C9)=CC=C9\C(C(C=C5)=N/C5=C3C4=CC=NC=C4)=C(N6)/C=C/C6=C(C7=CC=NC=C7)/C2=N/C(C=C2)=C(C8=CC=NC=C8)\C1=CC=C\3N1,419,420,chloroform,239883,0.1,,0.62,toluene ,,,,,, 420  514   549   589  647 ,10.1142/S1088424615501047
1356,3_149,TPP,FALSE,C2(\C(C8=CC=CC=C8)=C(C=C6)/N/C6=C4C5=CC=CC=C5)=N/C(C=C2)=C(C9=CC=CC=C9)\C1=CC=C(/C(C7=CC=CC=C7)=C3/C=CC\4=N3)N1,651,420,chloroform,,0.1,,0.62,toluene ,,,,,, 419  513  547   589   646  ,10.1142/S1088424615501047