,index,name,metal_complex,SMILES,max_absorption_peak,max_emission_peak,solvant_spectrum,molar_extinction_coefficient,quantum_yield_fluorescence,max_phosphorescence_peak,quantum_yield_singlet_oxygen,solvant_quantum_yield,energy_level_exited_triplet_state,energy_level_HUMO,energy_level_LUMO,difference_HOMO_and_LUMO,method_for_HOMO/LUMO,all_absoption_peaks,reference_DOI
1017,2_598,aza-BODIPY dyes 9a,FALSE,F[B-]2(F)N1C(C6=CC=C([H])C=C6)=C(I)C(C5=CC(C8=CC=CC=C8N9CC)=C9C=C5)=C1N=C3[N+]2=C(C7=CC=C([H])C=C7)C(I)=C3C4=CC(C%10=CC=CC=C%10N%11CC)=C%11C=C4,723,820,acetonitrile,32000,0.03,,0.01,acetonitrile,,-5.324,-3.461,-1.863,theoretical,,10.1002/chem.201605702
1018,2_599,aza-BODIPY dyes 9b,FALSE,F[B-]2(F)N1C(C6=CC=C(Br)C=C6)=C(I)C(C5=CC(C8=CC=CC=C8N9CC)=C9C=C5)=C1N=C3[N+]2=C(C7=CC=C(Br)C=C7)C(I)=C3C4=CC(C%10=CC=CC=C%10N%11CC)=C%11C=C4,649,830,acetonitrile,41000,0.32,,0.61,acetonitrile,,-4.16,-2.67,-1.49,electrochemistry,,10.1002/chem.201605702
1019,2_599,aza-BODIPY dyes 9b,FALSE,F[B-]2(F)N1C(C6=CC=C(Br)C=C6)=C(I)C(C5=CC(C8=CC=CC=C8N9CC)=C9C=C5)=C1N=C3[N+]2=C(C7=CC=C(Br)C=C7)C(I)=C3C4=CC(C%10=CC=CC=C%10N%11CC)=C%11C=C4,649,830,acetonitrile,41000,0.32,,0.61,acetonitrile,,-3.645,-1.102,-2.543,theoretical,,10.1002/chem.201605702
1020,2_600,ADPM 5,FALSE,CN(C)C1=CC=C(C2=CC(C6=CC=C([C@](C)(C)C)C=C6)=C(\N=C3/N=C(C5=CC=C(N(C)C)C=C5)C=C3C4=CC=C([C@@](C)(C)C)C=C4)N2)C=C1,681,,THF,55000,0.006,,,,,-4.89,-3.55,-1.34,electrochemistry,,10.1002/cphc.201900689
1021,2_601,aza-BODIPY 6,FALSE,CN(C)C1=CC=C(C2=CC(C6=CC=C([C@](C)(C)C)C=C6)=C4N2[B@@](F)(F)[N@]3=C(C5=CC=C(N(C)C)C=C5)C=C(C7=CC=C([C@@](C)(C)C)C=C7)C3=N4)C=C1,796,,THF,89000,0.039,,,,,-5.07,-3.89,-1.18,electrochemistry,,10.1002/cphc.201900689
1022,2_602,aza-BODIPY 7,FALSE,CN(C)C1=CC=C(C2=C(Br)C(C6=CC=C([C@](C)(C)C)C=C6)=C4N2[B@@](F)(F)[N]3=C(C5=CC=C(N(C)C)C=C5)C(Br)=C(C7=CC=C([C@@](C)(C)C)C=C7)C3=N4)C=C1,797,,THF,56000,0.0006,,,,,-5.32,-4.07,-1.25,electrochemistry,,10.1002/cphc.201900689
1023,2_603,aza-BODIPY 8,FALSE,CN(C)C1=C(Br)C=C(C2=C(Br)C(C6=CC=C([C@](C)(C)C)C=C6)=C4N2[B@@](F)(F)[N]3=C(C5=CC=C(N(C)C)C(Br)=C5)C(Br)=C(C7=CC=C([C@@](C)(C)C)C=C7)C3=N4)C=C1,697,,THF,61000,,,,,,-5.66,-4.21,-1.45,electrochemistry,,10.1002/cphc.201900689
1024,2_604,ADPM 9,FALSE,CN(C)C1=CC=C(C2=C(Br)C(C6=CC=C([C@](C)(C)C)C=C6)=C(\N=C3/N=C(C5=CC=C(N(C)C)C=C5)C(Br)=C3C4=CC=C([C@@](C)(C)C)C=C4)N2)C=C1,675,,THF,46000,0.006,,,,,-5.11,-3.71,-1.4,electrochemistry,,10.1002/cphc.201900689
1025,2_605,CM-BDP,FALSE,F[B]2(F)N1C(C)=CC(C)=C1C(C4=CC5=C(C=C(N(CC)CC)C=C5)OC4=O)=C3[N]2=C(C)C=C3C,522,,Water/DMSO 9:1,20700,0.12,,0.209,Water/DMSO 9:1,,,,,,"391, 522",10.1016/j.dyepig.2021.109711
1026,2_606,BODIPYs 2a,FALSE,IC4=C(C)C([N]3=C4C5=CNC6=C5C=CC=C6)=C(C2=C(C)C(I)=C(/C=C/C7=CNC8=C7C=CC=C8)N2[B]3(F)F)C1=CC(OC)=CC(OC)=C1,618,661,CH2Cl2,43651.58322,0.19,,0.72,DMSO,,,,,,,10.1016/j.jphotobiol.2015.02.006
1027,2_606,BODIPYs 2a,FALSE,IC4=C(C)C([N]3=C4C5=CNC6=C5C=CC=C6)=C(C2=C(C)C(I)=C(/C=C/C7=CNC8=C7C=CC=C8)N2[B]3(F)F)C1=CC(OC)=CC(OC)=C1,627,668,THF,57543.99373,0.2,,0.72,DMSO,,,,,,,10.1016/j.jphotobiol.2015.02.006
1028,2_606,BODIPYs 2a,FALSE,IC4=C(C)C([N]3=C4C5=CNC6=C5C=CC=C6)=C(C2=C(C)C(I)=C(/C=C/C7=CNC8=C7C=CC=C8)N2[B]3(F)F)C1=CC(OC)=CC(OC)=C1,636,676,DMSO,29512.09227,0.17,,0.72,DMSO,,,,,,,10.1016/j.jphotobiol.2015.02.006
1029,2_607,BODIPYs 2b,FALSE,IC4=C(C)C([N]3=C4C5=CC=C(OCCOCCOCCOC)C=C5)=C(C2=C(C)C(I)=C(/C=C/C6=CC=C(OCCOCCOCCOC)C=C6)N2[B]3(F)F)C1=CC(OC)=CC(OC)=C1,597,611,CH2Cl2,58884.36554,0.3,,0.78,DMSO,,,,,,,10.1016/j.jphotobiol.2015.02.006
1030,2_607,BODIPYs 2b,FALSE,IC4=C(C)C([N]3=C4C5=CC=C(OCCOCCOCCOC)C=C5)=C(C2=C(C)C(I)=C(/C=C/C6=CC=C(OCCOCCOCCOC)C=C6)N2[B]3(F)F)C1=CC(OC)=CC(OC)=C1,598,612,THF,50118.72336,0.32,,0.78,DMSO,,,,,,,10.1016/j.jphotobiol.2015.02.006
1031,2_607,BODIPYs 2b,FALSE,IC4=C(C)C([N]3=C4C5=CC=C(OCCOCCOCCOC)C=C5)=C(C2=C(C)C(I)=C(/C=C/C6=CC=C(OCCOCCOCCOC)C=C6)N2[B]3(F)F)C1=CC(OC)=CC(OC)=C1,601,624,DMSO,14791.08388,0.52,,0.78,DMSO,,,,,,,10.1016/j.jphotobiol.2015.02.006
1032,2_608,BODIPYs 2c,FALSE,IC4=C(C)C([N]3=C4C5=CC=CS5)=C(C2=C(C)C(I)=C(/C=C/C6=CC=CS6)N2[B]3(F)F)C1=CC(OC)=CC(OC)=C1,599,610,CH2Cl2,12022.64435,0.4,,0.63,DMSO,,,,,,,10.1016/j.jphotobiol.2015.02.006
1033,2_608,BODIPYs 2c,FALSE,IC4=C(C)C([N]3=C4C5=CC=CS5)=C(C2=C(C)C(I)=C(/C=C/C6=CC=CS6)N2[B]3(F)F)C1=CC(OC)=CC(OC)=C1,598,610,THF,11481.53621,0.3,,0.63,DMSO,,,,,,,10.1016/j.jphotobiol.2015.02.006
1034,2_608,BODIPYs 2c,FALSE,IC4=C(C)C([N]3=C4C5=CC=CS5)=C(C2=C(C)C(I)=C(/C=C/C6=CC=CS6)N2[B]3(F)F)C1=CC(OC)=CC(OC)=C1,604,621,DMSO,40738.02778,0.15,,0.63,DMSO,,,,,,,10.1016/j.jphotobiol.2015.02.006
1035,2_609,BODIPYs 2d,FALSE,IC4=C(C)C([N]3=C4C5=CNC6=C5C=C([N+]([O-])=O)C=C6)=C(C2=C(C)C(I)=C(/C=C/C7=CNC8=C7C=C([N+]([O-])=O)C=C8)N2[B]3(F)F)C1=CC(OC)=CC(OC)=C1,606,630,CH2Cl2,25703.95783,0.37,,0.55,DMSO,,,,,,,10.1016/j.jphotobiol.2015.02.006
1036,2_609,BODIPYs 2d,FALSE,IC4=C(C)C([N]3=C4C5=CNC6=C5C=C([N+]([O-])=O)C=C6)=C(C2=C(C)C(I)=C(/C=C/C7=CNC8=C7C=C([N+]([O-])=O)C=C8)N2[B]3(F)F)C1=CC(OC)=CC(OC)=C1,612,635,THF,26915.34804,0.32,,0.55,DMSO,,,,,,,10.1016/j.jphotobiol.2015.02.006
1037,2_609,BODIPYs 2d,FALSE,IC4=C(C)C([N]3=C4C5=CNC6=C5C=C([N+]([O-])=O)C=C6)=C(C2=C(C)C(I)=C(/C=C/C7=CNC8=C7C=C([N+]([O-])=O)C=C8)N2[B]3(F)F)C1=CC(OC)=CC(OC)=C1,622,651,DMSO,28840.31503,0.19,,0.55,DMSO,,,,,,,10.1016/j.jphotobiol.2015.02.006
1038,2_610,BODIPYs 2e,FALSE,IC4=C(C)C([N]3=C4C5=C(C)NC(C(OCC)=O)=C5C)=C(C2=C(C)C(I)=C(/C=C/C6=C(C)NC(C(OCC)=O)=C6C)N2[B]3(F)F)C1=CC(OC)=CC(OC)=C1,606,628,CH2Cl2,70794.57844,0.21,,0.65,DMSO,,,,,,,10.1016/j.jphotobiol.2015.02.006
1039,2_610,BODIPYs 2e,FALSE,IC4=C(C)C([N]3=C4C5=C(C)NC(C(OCC)=O)=C5C)=C(C2=C(C)C(I)=C(/C=C/C6=C(C)NC(C(OCC)=O)=C6C)N2[B]3(F)F)C1=CC(OC)=CC(OC)=C1,611,632,THF,79432.82347,0.22,,0.65,DMSO,,,,,,,10.1016/j.jphotobiol.2015.02.006
1040,2_610,BODIPYs 2e,FALSE,IC4=C(C)C([N]3=C4C5=C(C)NC(C(OCC)=O)=C5C)=C(C2=C(C)C(I)=C(/C=C/C6=C(C)NC(C(OCC)=O)=C6C)N2[B]3(F)F)C1=CC(OC)=CC(OC)=C1,612,639,DMSO,66069.3448,0.23,,0.65,DMSO,,,,,,,10.1016/j.jphotobiol.2015.02.006
1041,2_611,BODIPYs 3a,FALSE,IC4=C(C)C([N]3=C4/C=C/C5=CNC6=C5C=CC=C6)=C(C2=C(C)C(I)=C(/C=C/C7=CNC8=C7C=CC=C8)N2[B]3(F)F)C1=CC(OC)=CC(OC)=C1,702,735,CH2Cl2,34673.68505,0.15,,0.64,DMSO,,,,,,,10.1016/j.jphotobiol.2015.02.006
1042,2_611,BODIPYs 3a,FALSE,IC4=C(C)C([N]3=C4/C=C/C5=CNC6=C5C=CC=C6)=C(C2=C(C)C(I)=C(/C=C/C7=CNC8=C7C=CC=C8)N2[B]3(F)F)C1=CC(OC)=CC(OC)=C1,715,748,THF,41686.93835,0.12,,0.64,DMSO,,,,,,,10.1016/j.jphotobiol.2015.02.006
1043,2_611,BODIPYs 3a,FALSE,IC4=C(C)C([N]3=C4/C=C/C5=CNC6=C5C=CC=C6)=C(C2=C(C)C(I)=C(/C=C/C7=CNC8=C7C=CC=C8)N2[B]3(F)F)C1=CC(OC)=CC(OC)=C1,727,771,DMSO,24547.08916,0.1,,0.64,DMSO,,,,,,,10.1016/j.jphotobiol.2015.02.006
1044,2_612,BODIPYs 3b,FALSE,IC4=C(C)C([N]3=C4/C=C/C5=CC=C(OCOCCOCCOC)C=C5)=C(C2=C(C)C(I)=C(/C=C/C6=CC=C(OCCOCCOCCOC)C=C6)N2[B]3(F)F)C1=CC(OC)=CC(OC)=C1,664,687,CH2Cl2,56234.13252,0.24,,0.65,DMSO,,,,,,,10.1016/j.jphotobiol.2015.02.006
1045,2_612,BODIPYs 3b,FALSE,IC4=C(C)C([N]3=C4/C=C/C5=CC=C(OCOCCOCCOC)C=C5)=C(C2=C(C)C(I)=C(/C=C/C6=CC=C(OCCOCCOCCOC)C=C6)N2[B]3(F)F)C1=CC(OC)=CC(OC)=C1,664,684,THF,63095.73445,0.19,,0.65,DMSO,,,,,,,10.1016/j.jphotobiol.2015.02.006
1046,2_612,BODIPYs 3b,FALSE,IC4=C(C)C([N]3=C4/C=C/C5=CC=C(OCOCCOCCOC)C=C5)=C(C2=C(C)C(I)=C(/C=C/C6=CC=C(OCCOCCOCCOC)C=C6)N2[B]3(F)F)C1=CC(OC)=CC(OC)=C1,666,695,DMSO,61659.50019,0.17,,0.65,DMSO,,,,,,,10.1016/j.jphotobiol.2015.02.006
1047,2_613,BODIPYs 3c,FALSE,IC4=C(C)C([N]3=C4/C=C/C5=CC=CS5)=C(C2=C(C)C(I)=C(/C=C/C6=CC=CS6)N2[B]3(F)F)C1=CC(OC)=CC(OC)=C1,670,682,CH2Cl2,38904.5145,0.02,,0.37,DMSO,,,,,,,10.1016/j.jphotobiol.2015.02.006
1048,2_613,BODIPYs 3c,FALSE,IC4=C(C)C([N]3=C4/C=C/C5=CC=CS5)=C(C2=C(C)C(I)=C(/C=C/C6=CC=CS6)N2[B]3(F)F)C1=CC(OC)=CC(OC)=C1,670,680,THF,39810.71706,0.01,,0.37,DMSO,,,,,,,10.1016/j.jphotobiol.2015.02.006
1049,2_613,BODIPYs 3c,FALSE,IC4=C(C)C([N]3=C4/C=C/C5=CC=CS5)=C(C2=C(C)C(I)=C(/C=C/C6=CC=CS6)N2[B]3(F)F)C1=CC(OC)=CC(OC)=C1,675,692,DMSO,38904.5145,0.01,,0.37,DMSO,,,,,,,10.1016/j.jphotobiol.2015.02.006
1050,2_614,BODIPYs 3d,FALSE,IC4=C(C)C([N]3=C4/C=C/C5=CNC6=C5C=C([N+]([O-])=O)C=C6)=C(C2=C(C)C(I)=C(/C=C/C7=CNC8=C7C=C([N+]([O-])=O)C=C8)N2[B]3(F)F)C1=CC(OC)=CC(OC)=C1,690,721,CH2Cl2,28183.82931,0.02,,0.34,DMSO,,,,,,,10.1016/j.jphotobiol.2015.02.006
1051,2_614,BODIPYs 3d,FALSE,IC4=C(C)C([N]3=C4/C=C/C5=CNC6=C5C=C([N+]([O-])=O)C=C6)=C(C2=C(C)C(I)=C(/C=C/C7=CNC8=C7C=C([N+]([O-])=O)C=C8)N2[B]3(F)F)C1=CC(OC)=CC(OC)=C1,695,720,THF,61659.50019,0.03,,0.34,DMSO,,,,,,,10.1016/j.jphotobiol.2015.02.006
1052,2_614,BODIPYs 3d,FALSE,IC4=C(C)C([N]3=C4/C=C/C5=CNC6=C5C=C([N+]([O-])=O)C=C6)=C(C2=C(C)C(I)=C(/C=C/C7=CNC8=C7C=C([N+]([O-])=O)C=C8)N2[B]3(F)F)C1=CC(OC)=CC(OC)=C1,712,748,DMSO,74131.02413,0.02,,0.34,DMSO,,,,,,,10.1016/j.jphotobiol.2015.02.006
1053,2_615,BODIPYs 3e,FALSE,IC4=C(C)C([N]3=C4/C=C/C5=C(C)NC(C(OCC)=O)=C5C)=C(C2=C(C)C(I)=C(/C=C/C6=C(C)NC(C(OCC)=O)=C6C)N2[B]3(F)F)C1=CC(OC)=CC(OC)=C1,678,710,CH2Cl2,72443.59601,0.1,,0.43,DMSO,,,,,,,10.1016/j.jphotobiol.2015.02.006
1054,2_615,BODIPYs 3e,FALSE,IC4=C(C)C([N]3=C4/C=C/C5=C(C)NC(C(OCC)=O)=C5C)=C(C2=C(C)C(I)=C(/C=C/C6=C(C)NC(C(OCC)=O)=C6C)N2[B]3(F)F)C1=CC(OC)=CC(OC)=C1,685,713,THF,63095.73445,0.07,,0.43,DMSO,,,,,,,10.1016/j.jphotobiol.2015.02.006
1055,2_615,BODIPYs 3e,FALSE,IC4=C(C)C([N]3=C4/C=C/C5=C(C)NC(C(OCC)=O)=C5C)=C(C2=C(C)C(I)=C(/C=C/C6=C(C)NC(C(OCC)=O)=C6C)N2[B]3(F)F)C1=CC(OC)=CC(OC)=C1,693,731,DMSO,91201.08394,0.07,,0.43,DMSO,,,,,,,10.1016/j.jphotobiol.2015.02.006
1056,2_616,B-1,FALSE,IC3=C(C5=CC=CC=C5)C2=NC1=C(C6=CC=CC=C6)C(I)=C(C9=CC=C(OCC%10=CN(CCOC%11=CC=CC=C%11)N=N%10)C=C9)[N+]1[B-](F)(F)[N]2=C3C4=CC=C(OCC7=CN(CCOC8=CC=CC=C8)N=N7)C=C4,683,714,toluene,73000,0.21,,0.68,Air saturated DCM,,,,,,,10.1039/C3SC52323C
1057,2_617,B-2,FALSE,IC3=C(C5=CC=CC=C5)C2=NC1=C(C6=CC=CC=C6)C(I)=C(C9=CC=C(OCC%10=CN(CCOC%11=CC=C(C%16=C%15[N]([B-](F)(F)[N+]%17C%16=C(C)C=C%17C)=C(C)C=C%15C)C=C%11)[N][N]%10)C=C9)N1[B-](F)([F+])[N]2=C3C4=CC=C(OCC7=CN(CCOC8=CC=C(C%13=C%12[N]([B-](F)(F)[N+]%14C%13=C(C)C=C%14C)=C(C)C=C%12C)C=C8)[N][N]7)C=C4,504,520,toluene,165000,0.15,,0.69,Air saturated DCM,,,,,,,10.1039/C3SC52323C
1058,2_618,B-3,FALSE,IC3=C(C5=CC=CC=C5)C2=NC1=C(C6=CC=CC=C6)C(I)=C(C9=CC=C(OCC%10=CN(CCOC%11=CC=C(C%17=C%16[N]([B-](F)(F)[N+]%18C%17=C(C)C=C%18C)=C(/C=C/C%21=CC=C(N(CCCC)C%23=C%22C=CC=C%23)C%22=C%21)C=C%16C)C=C%11)[N][N]%10)C=C9)N1[B-](F)([F+])[N]2=C3C4=CC=C(OCC7=CN(CCOC8=CC=C(C%13=C%12[N]([B-](F)(F)[N+]%14C%13=C(C)C=C%14/C=C/C%15=CC=C(N(CCCC)C%20=C%19C=CC=C%20)C%19=C%15)=C(C)C=C%12C)C=C8)[N][N]7)C=C4,593,,toluene,220000,0.22,,0.58,Air saturated DCM,,,,,,,10.1039/C3SC52323C
1059,2_619,BDP-1,FALSE,F[B]2(F)N1C=CC=C1C(C4=CC=CC=C4)=C3[N]2=CC=C3.C[o-OCH3],506,523,toluene,,0.381,,0.009,toluene,,,,,,,10.1002/chem.202100922
1060,2_619,BDP-1,FALSE,F[B]2(F)N1C=CC=C1C(C4=CC=CC=C4)=C3[N]2=CC=C3.C[o-OCH3],503,519,THF,,0.238,,0.011,THF,,,,,,,10.1002/chem.202100922
1061,2_619,BDP-1,FALSE,F[B]2(F)N1C=CC=C1C(C4=CC=CC=C4)=C3[N]2=CC=C3.C[o-OCH3],500,516,ACN,,0.104,,0.041,ACN,,,,,,,10.1002/chem.202100922
1062,2_620,BDP-2,FALSE,F[B]2(F)N1C=CC=C1C(C4=CC=CC=C4)=C3[N]2=CC=C3.C[m-OCH3],504,522,toluene,,0.057,,0.005,toluene,,,,,,,10.1002/chem.202100922
1063,2_620,BDP-2,FALSE,F[B]2(F)N1C=CC=C1C(C4=CC=CC=C4)=C3[N]2=CC=C3.C[m-OCH3],501,518,THF,,0.029,,0.009,THF,,,,,,,10.1002/chem.202100922
1064,2_620,BDP-2,FALSE,F[B]2(F)N1C=CC=C1C(C4=CC=CC=C4)=C3[N]2=CC=C3.C[m-OCH3],497,515,ACN,,0.014,,0.004,ACN,,,,,,,10.1002/chem.202100922
1065,2_621,BDP-3,FALSE,F[B]2(F)N1C=CC=C1C(C4=CC=CC=C4)=C3[N]2=CC=C3.C[p-OCH3],501,518,toluene,,0.093,,0.005,toluene,,,,,,,10.1002/chem.202100922
1066,2_621,BDP-3,FALSE,F[B]2(F)N1C=CC=C1C(C4=CC=CC=C4)=C3[N]2=CC=C3.C[p-OCH3],498,513,THF,,0.044,,0.021,THF,,,,,,,10.1002/chem.202100922
1067,2_621,BDP-3,FALSE,F[B]2(F)N1C=CC=C1C(C4=CC=CC=C4)=C3[N]2=CC=C3.C[p-OCH3],494,512,ACN,,0.017,,0.007,ACN,,,,,,,10.1002/chem.202100922
1068,2_622,BDP-4,FALSE,F[B]2(F)N1C=CC=C1C(C4=C(OC)C=CC=C4OC)=C3[N]2=CC=C3,507,524,toluene,,0.988,,0.022,toluene,,,,,,,10.1002/chem.202100922
1069,2_622,BDP-4,FALSE,F[B]2(F)N1C=CC=C1C(C4=C(OC)C=CC=C4OC)=C3[N]2=CC=C3,504,521,THF,,0.904,,0.036,THF,,,,,,,10.1002/chem.202100922
1070,2_622,BDP-4,FALSE,F[B]2(F)N1C=CC=C1C(C4=C(OC)C=CC=C4OC)=C3[N]2=CC=C3,500,516,ACN,,0.062,,0.059,ACN,,,,,,,10.1002/chem.202100922
1071,2_623,BDP-5,FALSE,F[B]2(F)N1C=CC=C1C(C4=C(OC)C=CC(OC)=C4)=C3[N]2=CC=C3,506,525,toluene,,0.028,,0.251,toluene,,,,,,,10.1002/chem.202100922
1072,2_623,BDP-5,FALSE,F[B]2(F)N1C=CC=C1C(C4=C(OC)C=CC(OC)=C4)=C3[N]2=CC=C3,502,513,THF,,0.001,,0.061,THF,,,,,,,10.1002/chem.202100922
1073,2_623,BDP-5,FALSE,F[B]2(F)N1C=CC=C1C(C4=C(OC)C=CC(OC)=C4)=C3[N]2=CC=C3,499,505,ACN,,0.001,,0.003,ACN,,,,,,,10.1002/chem.202100922
1074,2_624,BDP-6,FALSE,F[B]2(F)N1C=CC=C1C(C4=C(OC)C=C(OC)C(OC)=C4)=C3[N]2=CC=C3,507,521,toluene,,0.002,,0.158,toluene,,,,,,,10.1002/chem.202100922
1075,2_624,BDP-6,FALSE,F[B]2(F)N1C=CC=C1C(C4=C(OC)C=C(OC)C(OC)=C4)=C3[N]2=CC=C3,503,517,THF,,0.0006,,0.011,THF,,,,,,,10.1002/chem.202100922
1076,2_624,BDP-6,FALSE,F[B]2(F)N1C=CC=C1C(C4=C(OC)C=C(OC)C(OC)=C4)=C3[N]2=CC=C3,499,505,ACN,,0.0013,,0.004,ACN,,,,,,,10.1002/chem.202100922
1077,2_625,BDP-7,FALSE,F[B]2(F)N1C=CC=C1C(C4=C(OC)C=C(OC)C=C4OC)=C3[N]2=CC=C3,507,522,toluene,,0.661,,0.11,toluene,,,,,,,10.1002/chem.202100922
1078,2_625,BDP-7,FALSE,F[B]2(F)N1C=CC=C1C(C4=C(OC)C=C(OC)C=C4OC)=C3[N]2=CC=C3,504,519,THF,,0.316,,0.363,THF,,,,,,,10.1002/chem.202100922
1079,2_625,BDP-7,FALSE,F[B]2(F)N1C=CC=C1C(C4=C(OC)C=C(OC)C=C4OC)=C3[N]2=CC=C3,500,518,ACN,,0.0003,,0.193,ACN,,,,,,,10.1002/chem.202100922
1080,2_626,Ternary oxidovanadium(IV) complexes 1,TRUE,[H][N]25[V]([N]1=CC=CC=C1C2)([O]=C(/C=C/C6=CC=C(O)C(OC)=C6)C=C(O7)/C=C/C3=CC(OC)=C(O)C=C3)([N]4=C(C5)C=CC=C4)7=O,435,,DMF/DPBS 1:1,45800,0.44,,,,,-7.7117,-5.4532,-2.2585,theoretical,"435, 715",10.1021/acs.inorgchem.7b01924
1081,2_627,Ternary oxidovanadium(IV) complexes 2,TRUE,CC(C=C4C)=C(N4[B](F)3F)C(C2=CC=C([N]69[V]([N]5=CC=CC=C5C6)([O]=C(/C=C/C%10=CC=C(O)C(OC)=C%10)C=C(O%11)/C=C/C7=CC(OC)=C(O)C=C7)([N]8=C(C9)C=CC=C8)%11=O)C=C2)=C1[N]3=C(C)C=C1C,501,,DMF/DPBS 1:1,54680,0.11,,,,,-7.2409,-4.9198,-2.3211,theoretical,"434, 501, 717",10.1021/acs.inorgchem.7b01924
1082,2_628,Ternary oxidovanadium(IV) complexes 3,TRUE,CC(C(I)=C4C)=C(N4[B](F)3F)C(C2=CC=C([N]69[V]([N]5=CC=CC=C5C6)([O]=C(/C=C/C%10=CC=C(O)C(OC)=C%10)C=C(O%11)/C=C/C7=CC(OC)=C(O)C=C7)([N]8=C(C9)C=CC=C8)%11=O)C=C2)=C1[N]3=C(C)C(I)=C1C,535,,DMF/DPBS 1:1,30285,0.01,,,,,-7.3797,-5.0532,-2.3265,theoretical,"432, 535, 721",10.1021/acs.inorgchem.7b01924
1083,2_629,[Ru(tpy-BODIPY)(tpy-R)]Cl2 1,TRUE,COC(C=C%11)=CC=C%11C8=CC5=[N]7[Ru]2([N]4=CC=CC=C45)([N]6=CC=CC=C6C7=C8)([N]9=CC=CC=C9%10)[N]1=CC=CC=C1C3=CC(C%12=CC=C(C%14=C%13[N]([B](F)(F)N%15C%14=C(C)C=C%15C)=C(C)C=C%13C)C=C%12)=CC%10=[N]23,502,513,DMSO,77500,,,0.69,DMSO,,,,,,,10.1021/acs.inorgchem.1c01850
1084,2_630,[Ru(tpy-BODIPY)(tpy-R)]Cl2 2,TRUE,CC(C=C%15C)=C(N%15[B](F)%14F)C(C%13=CC=C(C=C%13)C%11=CC3=[N]%10[Ru]5([N]4=CC=CC=C4C6=CC(C%12=CC=C(OCCCN%16C(C(C=CC=C%17)=C%17C%16=O)=O)C=C%12)=CC8=[N]56)([N]7=CC=CC=C78)([N]9=CC=CC=C9C%10=C%11)[N]2=CC=CC=C23)=C1[N]%14=C(C)C=C1C,502,513,DMSO,68900,,,0.75,DMSO,,,,,,,10.1021/acs.inorgchem.1c01850
1085,2_631,[Ru(tpy-BODIPY)(tpy-R)]Cl2 3,TRUE,CC(C=C%15C)=C(N%15[B](F)%14F)C(C%13=CC=C(C=C%13)C%11=CC3=[N]%10[Ru]5([N]4=CC=CC=C4C6=CC(C%12=CC=C(OCCCN)C=C%12)=CC8=[N]56)([N]7=CC=CC=C78)([N]9=CC=CC=C9C%10=C%11)[N]2=CC=CC=C23)=C1[N]%14=C(C)C=C1C,502,512,DMSO,36900,,,0.75,DMSO,,,,,,,10.1021/acs.inorgchem.1c01850
1086,2_632,[Ru(tpy-BODIPY)(tpy-R)]Cl2 4,TRUE,CC(C=C%15C)=C(N%15[B](F)%14F)C(C%13=CC=C(C=C%13)C%11=CC3=[N]%10[Ru]5([N]4=CC=CC=C4C6=CC(C%12=CC=C(OCCCNC(CCCCC%16C(NC(N%17)=O)C%17CS%16)=O)C=C%12)=CC8=[N]56)([N]7=CC=CC=C78)([N]9=CC=CC=C9C%10=C%11)[N]2=CC=CC=C23)=C1[N]%14=C(C)C=C1C,502,513,DMSO,53300,,,0.67,DMSO,,,,,,,10.1021/acs.inorgchem.1c01850
1087,2_633,Bodipy-1,FALSE,F[B@]5(F)[N]3=CC1=C(C3=C(C8=CC(OC)=C(O)C=C8)C(N5C(CC9=CC(OC)=C(O)C=C9)=C67)=C7C=CC4=C6C=CN=C4)C=CC2=C1C=CN=C2,585,594, dry DCM,75300,0.5,,,,,-5.86,-3.66,-2.2,electrochemistry,, 10.1021/acs.inorgchem.7b01630
1088,2_634,Bodipy-2,FALSE,F[B@]5(F)[N]3=CC1=C(C3=C(C8=CC=C(F)C=C8)C(N5C(CC9=CC=C(F)C=C9)=C67)=C7C=CC4=C6C=CN=C4)C=CC2=C1C=CN=C2,587,594, dry DCM,131000,0.45,,,,,-5.68,-3.76,-1.92,electrochemistry,, 10.1021/acs.inorgchem.7b01630
1089,2_635,Bodipy-3,FALSE,F[B@]5(F)[N]3=CC1=C(C3=C(C8=CC=CC=C8)C(N5C(CC9=CC=CC=C9)=C67)=C7C=CC4=C6C=CN=C4)C=CC2=C1C=CN=C2,585,592, dry DCM,138000,0.81,,,,,-5.62,-3.76,-1.86,electrochemistry,, 10.1021/acs.inorgchem.7b01630
1090,2_636,Ru2-1,TRUE,Cl[Ru]2([N]4=CC8=C(C(C=[N]([B@](F)%14F)C9=C(C%13=CC=C(O)C(OC)=C%13)C(N%14C(CC%21=CC(OC)=C(O)C=C%21)=C%11%12)=C%12C=CC%10=C%11C=C[N]([Ru](Cl)([N@@]%16=CC=CC=C%16%17)%19([N]%18=CC=CC=C%18C%20=[N]%19C=CC=C%20)[N]%15=C%17C=CC=C%15)=C%10)=C9C=C8)C=C4)([N]5=C6C=CC=C5)([N@@]7=CC=CC=C67)[N]1=CC=CC=C1C3=[N@@]2C=CC=C3,295,,DCM(补充信息),93900,,,,,,-5.89,-3.77,-2.12,electrochemistry,"295, 375, 514, 610", 10.1021/acs.inorgchem.7b01630
1091,2_637,Ru2-2,TRUE,Cl[Ru]2([N]4=CC8=C(C(C=[N]([B@](F)%14F)C9=C(C%13=CC=C(F)C=C%13)C(N%14C(CC%21=CC=C(F)C=C%21)=C%11%12)=C%12C=CC%10=C%11C=C[N]([Ru](Cl)([N@@]%16=CC=CC=C%16%17)%19([N]%18=CC=CC=C%18C%20=[N]%19C=CC=C%20)[N]%15=C%17C=CC=C%15)=C%10)=C9C=C8)C=C4)([N]5=C6C=CC=C5)([N@@]7=CC=CC=C67)[N]1=CC=CC=C1C3=[N@@]2C=CC=C3,295,,DCM(补充信息),150400,,,,,,-5.95,-3.77,-2.18,electrochemistry,"295, 365, 507, 602", 10.1021/acs.inorgchem.7b01630
1092,2_638,Ru2-3,TRUE,Cl[Ru]2([N]4=CC8=C(C(C=[N]([B@](F)%14F)C9=C(C%13=CC=CC=C%13)C(N%14C(CC%21=CC=CC=C%21)=C%11%12)=C%12C=CC%10=C%11C=C[N]([Ru](Cl)([N@@]%16=CC=CC=C%16%17)%19([N]%18=CC=CC=C%18C%20=[N]%19C=CC=C%20)[N]%15=C%17C=CC=C%15)=C%10)=C9C=C8)C=C4)([N]5=C6C=CC=C5)([N@@]7=CC=CC=C67)[N]1=CC=CC=C1C3=[N@@]2C=CC=C3,295,,DCM(补充信息),123000,,,,,,-5.92,-3.75,-2.17,electrochemistry,"295, 368, 508, 602", 10.1021/acs.inorgchem.7b01630
1093,2_639,ST-1,FALSE,F[B-]2(F)N1C(C6=CC=C(C8OC(C)(C)C(C)(C)O8)S6)=CC=C1C(C4=CC=C(C5OC(C)(C)C(C)(C)O5)S4)=C3[N+]2=C(C7=CC=C(C9OC(C)(C)C(C)(C)O9)S7)C=C3,640,660,Ethyl acetate,76700,0.24,,,,,-5.41,-3.52,-1.89,electrochemistry,,10.1039/d0qm00494d
1094,2_639,ST-1,FALSE,F[B-]2(F)N1C(C6=CC=C(C8OC(C)(C)C(C)(C)O8)S6)=CC=C1C(C4=CC=C(C5OC(C)(C)C(C)(C)O5)S4)=C3[N+]2=C(C7=CC=C(C9OC(C)(C)C(C)(C)O9)S7)C=C3,644,663,THF,65800,0.26,,,,,-5.41,-3.52,-1.89,electrochemistry,,10.1039/d0qm00494d
1095,2_639,ST-1,FALSE,F[B-]2(F)N1C(C6=CC=C(C8OC(C)(C)C(C)(C)O8)S6)=CC=C1C(C4=CC=C(C5OC(C)(C)C(C)(C)O5)S4)=C3[N+]2=C(C7=CC=C(C9OC(C)(C)C(C)(C)O9)S7)C=C3,643,665,DCM,77400,0.3,,,,,-5.41,-3.52,-1.89,electrochemistry,,10.1039/d0qm00494d
1096,2_639,ST-1,FALSE,F[B-]2(F)N1C(C6=CC=C(C8OC(C)(C)C(C)(C)O8)S6)=CC=C1C(C4=CC=C(C5OC(C)(C)C(C)(C)O5)S4)=C3[N+]2=C(C7=CC=C(C9OC(C)(C)C(C)(C)O9)S7)C=C3,638,660,Acetone,57700,0.22,,,,,-5.41,-3.52,-1.89,electrochemistry,,10.1039/d0qm00494d
1097,2_639,ST-1,FALSE,F[B-]2(F)N1C(C6=CC=C(C8OC(C)(C)C(C)(C)O8)S6)=CC=C1C(C4=CC=C(C5OC(C)(C)C(C)(C)O5)S4)=C3[N+]2=C(C7=CC=C(C9OC(C)(C)C(C)(C)O9)S7)C=C3,634,659,Acetonitrile,53000,0.24,,,,,-5.41,-3.52,-1.89,electrochemistry,,10.1039/d0qm00494d
1098,2_639,ST-1,FALSE,F[B-]2(F)N1C(C6=CC=C(C8OC(C)(C)C(C)(C)O8)S6)=CC=C1C(C4=CC=C(C5OC(C)(C)C(C)(C)O5)S4)=C3[N+]2=C(C7=CC=C(C9OC(C)(C)C(C)(C)O9)S7)C=C3,643,667,DMF,63400,0.23,,,,,-5.41,-3.52,-1.89,electrochemistry,,10.1039/d0qm00494d
1099,2_639,ST-1,FALSE,F[B-]2(F)N1C(C6=CC=C(C8OC(C)(C)C(C)(C)O8)S6)=CC=C1C(C4=CC=C(C5OC(C)(C)C(C)(C)O5)S4)=C3[N+]2=C(C7=CC=C(C9OC(C)(C)C(C)(C)O9)S7)C=C3,646,671,DMSO,61000,0.25,,,,,-4.95,-2.69,-2.26,theoretical,,10.1039/d0qm00494d
1100,2_640,ST-2,FALSE,F[B-]2(F)N1C(C5=CC=C(C=O)S5)=CC=C1C(C4=CC=C(C=O)S4)=C3[N+]2=C(C6=CC=C(C=O)S6)C=C3,652,677,Ethyl acetate,45400,0.04,,,,,-5.95,-4.11,-1.84,electrochemistry,,10.1039/d0qm00494d
1101,2_640,ST-2,FALSE,F[B-]2(F)N1C(C5=CC=C(C=O)S5)=CC=C1C(C4=CC=C(C=O)S4)=C3[N+]2=C(C6=CC=C(C=O)S6)C=C3,657,680,THF,38700,0.05,,,,,-5.95,-4.11,-1.84,electrochemistry,,10.1039/d0qm00494d
1102,2_640,ST-2,FALSE,F[B-]2(F)N1C(C5=CC=C(C=O)S5)=CC=C1C(C4=CC=C(C=O)S4)=C3[N+]2=C(C6=CC=C(C=O)S6)C=C3,660,688,DCM,90200,0.04,,,,,-5.95,-4.11,-1.84,electrochemistry,,10.1039/d0qm00494d