,index,name,metal_complex,SMILES,max_absorption_peak,max_emission_peak,solvant_spectrum,molar_extinction_coefficient,quantum_yield_fluorescence,max_phosphorescence_peak,quantum_yield_singlet_oxygen,solvant_quantum_yield,energy_level_exited_triplet_state,energy_level_HUMO,energy_level_LUMO,difference_HOMO_and_LUMO,method_for_HOMO/LUMO,all_absoption_peaks,reference_DOI
1357,3_150,"5,10,15,20-Tetra(9-phenanthrenyl)porphyrin (7).",FALSE,C2(\C(C%10=CC(C=CC=C%17)=C%17C%11=C%10C=CC=C%11)=C(C=C7)/N/C7=C4C5=CC(C=CC=C%14)=C%14C6=C5C=CC=C6)=N/C(C=C2)=C(C%12=CC(C=CC=C%16)=C%16C%13=C%12C=CC=C%13)\C1=CC=C(/C(C8=CC(C=CC=C%15)=C%15C9=C8C=CC=C9)=C3/C=CC\4=N3)N1,427,420,chloroform,549541,0.09,,0.63,toluene ,,,,,,427  516   550   591  648  ,10.1142/S1088424615501047
1358,3_151,"Tetrakis-5,10,15,20-(3-hydroxyphenyl)porphyrine (1)",FALSE,OC1=CC(\C(C(C=C6)=N/C6=C4C5=CC=CC(O)=C5)=C(N7)/C=C/C7=C(C8=CC=CC(O)=C8)/C3=N/C(C=C3)=C(C9=CC=CC(O)=C9)\C2=CC=C\4N2)=CC=C1,415,654,"chloroform
or methanol ",457088,0.098,,0.6,"chloroform
or methanol ",,,,,,415  514  549   590   650  ,10.1016/j.dyepig.2013.06.029
1359,3_152,"Tetrakis-5,10,15,20-(3-hydroxyphenyl)chlorine (2) ",FALSE,OC1=CC(\C(C(CC6)=N/C6=C4C5=CC=CC(O)=C5)=C(N7)/C=C/C7=C(C8=CC=CC(O)=C8)/C3=N/C(C=C3)=C(C9=CC=CC(O)=C9)\C2=CC=C\4N2)=CC=C1,416,651,"chloroform
or methanol ",190546,0.21,,0.57,"chloroform
or methanol ",,,,,,416  516   544  597  651  ,10.1016/j.dyepig.2013.06.029
1360,3_153,"5-(4-Hexadecyloxyphenyl)-10,15,20-tris(3-hydroxyphenyl)
porphyrine (4)",FALSE,OC1=CC(\C(C(CC6)=N/C6=C4C5=CC=CC(O)=C5)=C(N7)/C=C/C7=C(C8=CC=C(OCCCCCCCCCCCCCCCC)C=C8)/C3=N/C(C=C3)=C(C9=CC=CC(O)=C9)\C2=CC=C\4N2)=CC=C1,422,651,"chloroform
or methanol ",346737,0.096,,0.6,"chloroform
or methanol ",,,,,,422   517   553  593  651  ,10.1016/j.dyepig.2013.06.029
1361,3_142,"Tetrakis-5,10,15,20-(4-hydroxyphenyl)porphyrine (5)",FALSE,OC(C=C9)=CC=C9/C(C2=CC=C(\C(C8=CC=C(O)C=C8)=C3/N=C(\C(C7=CC=C(O)C=C7)=C(C=C6)/N/C6=C4C5=CC=C(O)C=C5)C=C3)N2)=C1C=CC\4=N/1,420,656,"chloroform
or methanol ",426580,0.123,,0.61,"chloroform
or methanol ",,,,,,420  517   554 592 651 ,10.1016/j.dyepig.2013.06.029
1362,3_155,"Tetrakis-5,10,15,20-(4-hydroxy-3-methoxyphenyl)porphyrine
(6) ",FALSE,OC(C=C9)=C(OC)C=C9/C(C2=CC=C(\C(C8=CC(OC)=C(O)C=C8)=C3/N=C(\C(C7=CC(OC)=C(O)C=C7)=C(C=C6)/N/C6=C4C5=CC(OC)=C(O)C=C5)C=C3)N2)=C1C=CC\4=N/1,423,656,"chloroform
or methanol ",389045,0.126,,0.62,"chloroform
or methanol ",,,,,,423  518  550   592  651  ,10.1016/j.dyepig.2013.06.029
1363,3_156,"Tetrakis-(4-hydroxy-3,5-dimethoxyphenylene)porphyrine (7)",FALSE,OC(C(OC)=C9)=C(OC)C=C9/C(C2=CC=C(\C(C8=CC(OC)=C(O)C(OC)=C8)=C3/N=C(\C(C7=CC(OC)=C(O)C(OC)=C7)=C(C=C6)/N/C6=C4C5=CC(OC)=C(O)C(OC)=C5)C=C3)N2)=C1C=CC\4=N/1,424,657,"chloroform
or methanol ",407380,0.12,,0.63,"chloroform
or methanol ",,,,,, 424  519  551  591  650  ,10.1016/j.dyepig.2013.06.029
1364,3_157,"5-(4-Hexadecyloxyphenyl)-10,15,20-tris(4-hydroxyphenyl)
porphyrine (8) ",FALSE,OC(C([H])=C9)=C([H])C=C9\C(C(C=C5)=N/C5=C3C4=CC([H])=C(OCCCCCCCCCCCCCCCC)C([H])=C4)=C(N6)/C=C/C6=C(C7=CC([H])=C(O)C([H])=C7)/C2=N/C(C=C2)=C(C8=CC([H])=C(O)C([H])=C8)\C1=CC=C\3N1,423,657,"chloroform
or methanol ",331131,0.126,,0.64,"chloroform
or methanol ",,,,,,423  519  556   594  651  ,10.1016/j.dyepig.2013.06.029
1365,3_158,"5-(3-Hexadecyloxyphenyl)-10,15,20-tris(3-hydroxyphenyl)
porphyrine (9)",FALSE,[H]C(C(OCCCCCCCCCCCCCCCC)=C9)=C([H])C=C9/C(C2=CC=C(\C(C8=CC(O)=C([H])C([H])=C8)=C3/N=C(\C(C7=CC(O)=C([H])C([H])=C7)=C(C=C6)/N/C6=C4C5=CC(O)=C([H])C([H])=C5)C=C3)N2)=C1C=CC\4=N/1,419,648,"chloroform
or methanol ",398107,0.086,,0.63,"chloroform
or methanol ",,,,,,419   517   550  591   647  ,10.1016/j.dyepig.2013.06.029
1366,3_159,"[5-(4-Oxyphenyl)-10,15,20-tris(4-hydroxyphenyl)porphyrine]
palmitate (10)",FALSE,OC(C([H])=C9)=C([H])C=C9\C(C(C=C5)=N/C5=C3C4=CC([H])=C(OC(CCCCCCCCCCCCCCC)=O)C([H])=C4)=C(N6)/C=C/C6=C(C7=CC([H])=C(O)C([H])=C7)/C2=N/C(C=C2)=C(C8=CC([H])=C(O)C([H])=C8)\C1=CC=C\3N1,419,653,"chloroform
or methanol ",354813,0.114,,0.65,"chloroform
or methanol ",,,,,,419   517   554   592  648  ,10.1016/j.dyepig.2013.06.029
1367,3_160,"5-(3-Oxyphenyl)-10,15,20-tris(3-hydroxyphenyl)porphyrine]
palmitate (11)",FALSE,[H]C(C(OC(CCCCCCCCCCCCCCC)=O)=C9)=C([H])C=C9/C(C2=CC=C(\C(C8=CC(O)=C([H])C([H])=C8)=C3/N=C(\C(C7=CC(O)=C([H])C([H])=C7)=C(C=C6)/N/C6=C4C5=CC(O)=C([H])C([H])=C5)C=C3)N2)=C1C=CC\4=N/1,419,650,"chloroform
or methanol ",323594,0.092,,0.64,"chloroform
or methanol ",,,,,, 419   519  553  595   652  ,10.1016/j.dyepig.2013.06.029
1368,3_161,"5-(4-Hexadecyloxy-3-methoxyphenyl)-10,15,20-tris(4-hydroxy-
3-methoxyphenyl)porphyrine (12) ",FALSE,OC(C([H])=C9)=C(OC)C=C9\C(C(C=C5)=N/C5=C3C4=CC([H])=C(OCCCCCCCCCCCCCCCC)C(OC)=C4)=C(N6)/C=C/C6=C(C7=CC(OC)=C(O)C([H])=C7)/C2=N/C(C=C2)=C(C8=CC(OC)=C(O)C([H])=C8)\C1=CC=C\3N1.CC,426,657,"chloroform
or methanol ",363078,0.128,,0.68,"chloroform
or methanol ",,,,,,426  520   558   593  651  ,10.1016/j.dyepig.2013.06.029
1369,3_162,"[5-(3-Methoxy-4-oxyphenyl)-10,15,20-tris(4-hydroxy-3-
methoxyphenyl)porphyrine] palmitate (13)",FALSE,OC(C([H])=C9)=C(OC)C=C9\C(C(C=C5)=N/C5=C3C4=CC([H])=C(OC(CCCCCCCCCCCCCCC)=O)C(OC)=C4)=C(N6)/C=C/C6=C(C7=CC(OC)=C(O)C([H])=C7)/C2=N/C(C=C2)=C(C8=CC(OC)=C(O)C([H])=C8)\C1=CC=C\3N1.CC,424,655,"chloroform
or methanol ",338844,0.125,,0.62,"chloroform
or methanol ",,,,,,424   519   558  594   650 ,10.1016/j.dyepig.2013.06.029
1370,3_163,"5-(4-Hexadecyloxy-3,5-dimethoxyphenyl)-10,15,20-tris(4-
hydroxy-3,5-dimethoxyphenyl) porphyrine (14) ",FALSE,OC(C(OC)=C9)=C(OC)C=C9\C(C(C=C5)=N/C5=C3C4=CC(OC)=C(OCCCCCCCCCCCCCCCC)C(OC)=C4)=C(N6)/C=C/C6=C(C7=CC(OC)=C(O)C(OC)=C7)/C2=N/C(C=C2)=C(C8=CC(OC)=C(O)C(OC)=C8)\C1=CC=C\3N1.CC,427,659,"chloroform
or methanol ",346737,0.118,,0.69,"chloroform
or methanol ",,,,,,427  520  557  594  650  ,10.1016/j.dyepig.2013.06.029
1371,3_164,"[5-(3,5-Dimethoxy-4-oxyphenyl)-10,15,20-tris(4-hydroxy-3,5-
dimethoxyphenyl)porphyrine] palmitate (15)",FALSE,OC(C(OC)=C9)=C(OC)C=C9\C(C(C=C5)=N/C5=C3C4=CC(OC)=C(OC(CCCCCCCCCCCCCCC)=O)C(OC)=C4)=C(N6)/C=C/C6=C(C7=CC(OC)=C(O)C(OC)=C7)/C2=N/C(C=C2)=C(C8=CC(OC)=C(O)C(OC)=C8)\C1=CC=C\3N1.CC,428,658,"chloroform
or methanol ",245471,0.121,,0.62,"chloroform
or methanol ",,,,,,428   520  556  594   650 ,10.1016/j.dyepig.2013.06.029
1372,3_165,"5-(4-Acetylaminophenyl)-10,15,20-tris(4-methoxyphenyl)
porphyrine (16)",FALSE,[H]C1=C(NC(C)=O)C([H])=CC(\C(C3=CC=C(\C(C9=CC([H])=C(OC)C([H])=C9)=C4/N=C(\C(C8=CC([H])=C(OC)C([H])=C8)=C(C=C7)/N/C7=C5C6=CC([H])=C(OC)C([H])=C6)C=C4)N3)=C2/C=CC\5=N2)=C1,420,655,"chloroform
or methanol ",354813,0.117,,0.62,"chloroform
or methanol ",,,,,,420   518    549    594  649  ,10.1016/j.dyepig.2013.06.029
1373,3_166,"5-5-(4-Aminophenyl)-10,15,20-tris(4-methoxyphenyl)porphyrine
(17) ",FALSE,NC(C([H])=C9)=C([H])C=C9/C(C2=CC=C(\C(C8=CC([H])=C(OC)C([H])=C8)=C3/N=C(\C(C7=CC([H])=C(OC)C([H])=C7)=C(C=C6)/N/C6=C4C5=CC([H])=C(OC)C([H])=C5)C=C3)N2)=C1C=CC\4=N/1,421,654,"chloroform
or methanol ",363078,0.119,,0.62,"chloroform
or methanol ",,,,,,421   518   549   593  651 ,10.1016/j.dyepig.2013.06.029
1374,3_167,"N-[5-(para-phenylene)-10,15,20-tris(4-methoxyphenyl)
porphyrine] palmitylamide (18)",FALSE,[H]C1=C(NC(CCCCCCCCCCCCCCC)=O)C([H])=CC(\C(C3=CC=C(\C(C9=CC([H])=C(OC)C([H])=C9)=C4/N=C(\C(C8=CC([H])=C(OC)C([H])=C8)=C(C=C7)/N/C7=C5C6=CC([H])=C(OC)C([H])=C6)C=C4)N3)=C2/C=CC\5=N2)=C1,423,655,"chloroform
or methanol ",323594,0.118,,0.61,"chloroform
or methanol ",,,,,, 423  519   556   592  649  ,10.1016/j.dyepig.2013.06.029
1375,3_168,"N-[5-(para-phenylene)-10,15,20-tris(4-hydroxyphenyl)
porphyrine] palmitylamide (19)",FALSE,OC(C([H])=C9)=C([H])C=C9\C(C(C=C5)=N/C5=C3C4=CC([H])=C(NC(CCCCCCCCCCCCCCC)=O)C([H])=C4)=C(N6)/C=C/C6=C(C7=CC([H])=C(O)C([H])=C7)/C2=N/C(C=C2)=C(C8=CC([H])=C(O)C([H])=C8)\C1=CC=C\3N1,419,652,"chloroform
or methanol ",380189,0.121,,0.67,"chloroform
or methanol ",,,,,,419  517  554   593   651  ,10.1016/j.dyepig.2013.06.029
1376,3_169,"H2P1
(p-bis(n-
methylpyridine) porphyrins 1,2,3 )",FALSE,CC(C=C9)=CC=C9/C(C2=CC=C(\C(C8=CC=[N+](C)C=C8)=C3/N=C(\C(C7=CC=C(C)C=C7)=C(C=C6)/N/C6=C4C5=CC=[N+](C)C=C5)C=C3)N2)=C1C=CC\4=N/1,422.86,,DMSO,,0.134,,0.775,DPBF,,,,,,422.86 516.79 554.24 591.06 649.56,10.1142/S1088424622500304
1377,3_170,H2P2,FALSE,C[N+](C=C9)=CC=C9\C(C(C=C5)=N/C5=C3C4=CC=C(C#N)C=C4)=C(N6)/C=C/C6=C(C7=CC=C(C#N)C=C7)/C2=N/C(C=C2)=C(C8=CC=[N+](C)C=C8)\C1=CC=C\3N1,423.52,,DMSO,,0.116,,1.06,DPBF,,,,,,423.52 518.81 556.92 592.37 643.91,10.1142/S1088424622500304
1378,3_171,H2P3,FALSE,C[N+](C=C9)=CC=C9\C(C(C=C5)=N/C5=C3C4=CC=C(C(F)(F)F)C=C4)=C(N6)/C=C/C6=C(C7=CC=C(C(F)(F)F)C=C7)/C2=N/C(C=C2)=C(C8=CC=[N+](C)C=C8)\C1=CC=C\3N1,422.85,,DMSO,,0.121,,1.01,DPBF,,,,,,422.85 515.51 554.93 591.06 645.28,10.1142/S1088424622500304
1379,3_172,TPPS4,TRUE,[Na]OOO[SH4]C#CC#CC#C/C(C2=CC=C(\C(C#CC#CC#C[SH4]OOO[Na])=C3/N=C(\C(C#CC#CC#C[SH4]OOO[Na])=C(C=C5)/N/C5=C4C#CC#CC#C[SH4]OOO[Na])C=C3)N2)=C1C=CC\4=N/1,411,,H2O,464000,,,0.71,PBS,,,,,,411   513   549   577   630  ,10.1021/jm000044i
1380,3_173,"5,10,15,20-Tetrakis(4-sulfonatophenyl)-
21,23-dithiaporphyrin (1) ",TRUE,[Na]OOO[SH4]C#CC#CC#C/C(C3=N/C(C=C3)=C2C#CC#CC#C[SH4]OOO[Na])=C(C=C5)/S/C5=C(C#CC#CC#C[SH4]OOO[Na])\C(C=C4)=N/C4=C(C#CC#CC#C[SH4]OOO[Na])\C1=CC=C\2S1,434,,H2O,190000,,,0.5,PBS,,,,,,434  513   546   633  695 ,10.1021/jm000044i
1381,3_174,"5,10,15,20-tetrakis(4-
sulfonatophenyl)-21,23-diselenaporphyrin (2)",TRUE,[Na]OOO[SH4]C#CC#CC#C\C(C(C=C4)=N/C4=C3C#CC#CC#C[SH4]OOO[Na])=C([Se]5)/C=C/C5=C(C#CC#CC#C[SH4]OOO[Na])/C2=N/C(C=C2)=C(C#CC#CC#C[SH4]OOO[Na])\C1=CC=C\3[Se]1,434,,H2O,221000,,,0.17,PBS,,,,,,434   513   546  631  695 ,10.1021/jm000044i
1382,3_175,Y2,TRUE,CCCCN(CCCC)C(C=C%10)=CC=C%10C#CC6=C3C=CC4=C(C%12=CC(C(C)(C)C)=C(OC)C(C(C)(C)C)=C%12)C5=[N]2C(C=C5)=C(C#CC%11=CC=C(N(CCCC)CCCC)C=C%11)C1=CC=C8N1[Zn]([N]7=C6C=CC7=C8C9=CC(C(C)(C)C)=C(OC)C(C(C)(C)C)=C9)2N34,472,,THF,,,,,,,-3.39,-5.25,-1.86,spectrometry ," 472, 684",10.1021/acsenergylett.6b00432
1383,3_176,Y2A2,TRUE,COC(C(C(C)(C)C)=C%12)=C(C(C)(C)C)C=C%12C3=C1C=CC7=[N]1[Zn]([N]4=C%10C=CC4=C5C#CC6=CC=C(N(CCCCCCCCCCCC)CCCCCCCCCCCC)C=C6)(N9C(C=CC9=C%10C%11=CC(C(C)(C)C)=C(OC)C(C(C)(C)C)=C%11)=C7C#CC8=CC=C(N(CCCCCCCCCCCC)CCCCCCCCCCCC)C=C8)N2C5=CC=C23,473,,THF,,,,,,,-3.42,-5.1,-1.68,spectrometry ,"473, 685 ",10.1021/acsenergylett.6b00432
1384,3_177,"5,10,15,20-tetrakis(3,4-
methoxyphenyl) porphyrin (P1)",FALSE,COC(C(OC)=C9)=CC=C9/C(C2=CC=C(\C(C7=CC=C(OC)C(OC)=C7)=C3/N=C(\C(C8=CC(OC)=C(OC)C=C8)=C(C=C6)/N/C6=C4C5=CC=C(OC)C(OC)=C5)C=C3)N2)=C1C=CC\4=N/1,426,664,DCM,,,,0.43,ABDA,,,,,,"426, 521, 554,598, 653",10.1021/acsami.7b15583
1385,3_178,"5,10,15,20-tetrakis(3,4-me-
thoxyphenyl) zinc porphyrin ",TRUE,COC(C(OC)=C%12)=CC=C%12C3=C1C=CC7=[N@@]1[Zn@@]([N@@]4=C%10C=CC4=C5C6=CC=C(OC)C(OC)=C6)(N9C(C=CC9=C%10C%11=CC(OC)=C(OC)C=C%11)=C7C8=CC=C(OC)C(OC)=C8)N2C5=CC=C23,432,609,DCM,,,,0.54,ABDA,,,,,,"432, 563, 605",10.1021/acsami.7b15583
1386,3_179,"5,15-bis(3,4-methoxyphenyl)-10,20-bis(4-methoxyphenylethynyl) zinc por-
phyrin (ZnP2)",TRUE,COC(C(OC)=C%12)=CC=C%12C3=C1C=CC7=[N@@]1[Zn@@]([N@@]4=C%10C=CC4=C5C#CC6=CC=C(OC)C=C6)(N9C(C=CC9=C%10C%11=CC(OC)=C(OC)C=C%11)=C7C#CC8=CC=C(OC)C=C8)N2C5=CC=C23,459,709,DCM,,,,0.79,ABDA,,,,,,"459, 610, 668",10.1021/acsami.7b15583
1387,3_180,BZnPP,TRUE,F[B]2(F)N1C=CC=C1C(C(C=C%16)=CC=C%16C#CC(C5=CC=C8N5[Zn]76N%11C(C=CC%11=C%12C%13=CC=CC(OCCOCCOCCOC)=C%13)=C(C#CC%14=CC=C(OCCOCCOCCOCC[P](C%17=CC=CC=C%17)(C%18=CC=CC=C%18)C%15=CC=CC=C%15)C=C%14)C(C=C%10)=[N]7C%10=C8C9=CC=CC(OCCOCCOCCOC)=C9)=C4[N]6=C%12C=C4)=C3[N]2=CC=C3,449,665,DMSO,"449 (5.32), 505 (4.79), 659 (4.87)",0.0015,,0.52,CHCl3,,,,,,,10.1002cbic.201500349+An Amphiphilic BODIPY-Porphyrin Conjugate Intense Two-Photon Absorption and Rapid Cellular Uptake for
1388,3_181,BZnPH,TRUE,F[B]2(F)N1C=CC=C1C(C(C=C%15)=CC=C%15C#CC(C5=CC=C8N5[Zn]76N%11C(C=CC%11=C%12C%13=CC=CC(OCCOCCOCCOC)=C%13)=C(C#CC%14=CC=C(O)C=C%14)C(C=C%10)=[N]7C%10=C8C9=CC=CC(OCCOCCOCCOC)=C9)=C4[N]6=C%12C=C4)=C3[N]2=CC=C3,450,666,DMSO,"450 (5.50), 505 (4.62), 660 (4.70)",0.0016,,0.59,CHCl3,,,,,,,10.1002cbic.201500349+An Amphiphilic BODIPY-Porphyrin Conjugate Intense Two-Photon Absorption and Rapid Cellular Uptake for
1389,3_182,TPP-Az-3AcMan,TRUE,[H][C@]1(OCC(N=N%13)=CN%13CC(C=C%12)=CC=C%12C7=C4C=CC5=C(C%16=CC=C(CN%17C=C(CO[C@@]%18([H])OC([H])(COC(C)=O)[C@@]([H])(OC(C)=O)[C@](OC(C)=C)([H])[C@]([H])%18OC(C)=O)N=N%17)C=C%16)C6=[N]3C(C=C6)=C(C%11=CC=C(CN=[N+]=[N-])C=C%11)C2=CC=C9N2[Zn@@]([N]8=C7C=CC8=C9C%10=CC=C(CN%14C=C(CO[C@@]%15([H])OC([H])(COC(C)=O)[C@@]([H])(OC(C)=O)[C@](OC(C)=C)([H])[C@]([H])%15OC(C)=O)N=N%14)C=C%10)3N45)OC([H])(COC(C)=O)[C@@]([H])(OC(C)=O)[C@](OC(C)=C)([H])[C@]([H])1OC(C)=O,429,608,DMSO,,,,0.8,DMF,,,,,,,10.1002chem.201804024+Clicked Porphyrin-Cucurbituril Conjugate A New Multifunctional Supramolecular Assembly Based on Trigly
1390,3_183,TPP-Az-3Man,TRUE,[H][C@]1(OCC(N=N%15)=CN%15CC2=CC=C(C5=C3C=CC9=[N]3[Zn@]([N]6=C%12C=CC6=C7C8=CC=C(CN%14C=C(CO[C@@]%18([H])OC([H])(COC(C)=O)[C@@]([H])(OC(C)=O)[C@](OC(C)=C)([H])[C@]([H])%18OC(C)=O)N=N%14)C=C8)(N%11C(C=CC%11=C%12C%13=CC=C(CN%16C=C(CO[C@@]%17([H])OC([H])(COC(C)=O)[C@@]([H])(OC(C)=O)[C@](OC(C)=C)([H])[C@]([H])%17OC(C)=O)N=N%16)C=C%13)=C9C%10=CC=C(CN=[N+]=[N-])C=C%10)N4C7=CC=C45)C=C2)OC([H])(COC(C)=O)[C@@]([H])(OC(C)=O)[C@](OC(C)=C)([H])[C@]([H])1OC(C)=O,429,608,DMSO,,4.1,,0.77,DMF,,,,,,,10.1002chem.201804024+Clicked Porphyrin-Cucurbituril Conjugate A New Multifunctional Supramolecular Assembly Based on Trigly
1391,3_184,TPP-3Man-CB7,TRUE,[H][C@]1(OCC(N=N%16)=CN%16CC2=CC=C(C5=C3C=CC9=[N]3[Zn@]([N]6=C%12C=CC6=C7C8=CC=C(CN%14C=C(CO[C@@]%19([H])OC([H])(COC(C)=O)[C@@]([H])(OC(C)=O)[C@](OC(C)=C)([H])[C@]([H])%19OC(C)=O)N=N%14)C=C8)(N%11C(C=CC%11=C%12C%13=CC=C(CN%17C=C(CO[C@@]%18([H])OC([H])(COC(C)=O)[C@@]([H])(OC(C)=O)[C@](OC(C)=C)([H])[C@]([H])%18OC(C)=O)N=N%17)C=C%13)=C9C%10=CC=C(CN%15C=C(CO[C@@]%20([H])OC([H])(COC(C)=O)[C@@]([H])(OC(C)=O)[C@](OC(C)=C)([H])[C@]([H])%20OC(C)=O)N=N%15)C=C%10)N4C7=CC=C45)C=C2)OC([H])(COC(C)=O)[C@@]([H])(OC(C)=O)[C@](OC(C)=C)([H])[C@]([H])1OC(C)=O,429,608,DMSO,,3.5,,0.77,DMF,,,,,,,10.1002chem.201804024+Clicked Porphyrin-Cucurbituril Conjugate A New Multifunctional Supramolecular Assembly Based on Trigly
1392,3_185,S3a,FALSE,CC(S7)=CC=C7\C(C2=CC=C(/C(C9=CC=C[N+](C)=C9)=C3/C=CC4=N3)N2)=C1N=C(\C(C8=CC=C(C)S8)=C(C=C6)/N/C6=C4/C5=CSC(C)=C5)C=C/1,418,660,DMF,,,,,,,-5.59,-3.02,-2.57,theoretical,,"10.1002slct.201802068+A(3)B Porphyrins Bearing ThienylPyridyl Moieties Obtained via Scrambling Characterization, DNA intera"
1393,3_186,S3b,TRUE,CC(S%11)=CC=C%11C(C2=CC=C5N2[Cu]43N8C(C=CC8=C9C%10=CC=C(C)S%10)=C(C%12=CSC(C)=C%12)C(C=C7)=[N]4C7=C5C6=CC=C[N+](C)=C6)=C1[N]3=C9C=C1,418,,DMF,,,,,,,-5.55,-3.13,-2.42,theoretical,,"10.1002slct.201802068+A(3)B Porphyrins Bearing ThienylPyridyl Moieties Obtained via Scrambling Characterization, DNA intera"
1394,3_187,S3c,TRUE,CC(S%11)=CC=C%11C(C2=CC=C5N2[Zn]43N8C(C=CC8=C9C%10=CC=C(C)S%10)=C(C%12=CSC(C)=C%12)C(C=C7)=[N]4C7=C5C6=CC=C[N+](C)=C6)=C1[N]3=C9C=C1,434,620,DMF,,,,,,,-5.43,-3.13,-2.3,theoretical,,"10.1002slct.201802068+A(3)B Porphyrins Bearing ThienylPyridyl Moieties Obtained via Scrambling Characterization, DNA intera"
1395,3_188,1,TRUE,Cl[Ru]([N](C=C9)=CC=C9\C(C(C=C5)=N/C5=C3C4=CC=CC=C4)=C(N6)/C=C/C6=C(C8=CC=CC=C8)/C2=N/C(C=C2)=C(C7=CC=CC=C7)\C1=CC=C\3N1)(Cl)c.cc%10=CC=CC=C%10.c%11ccccc%11,418,,DCM,167200,0.109,,0.49,EtOH,,,,,,,10.1007s00775-008-0427-y+Combined arene ruthenium porphyrins as chemotherapeutics and photosensitizers for cancer therapy
1396,3_189,2,TRUE,Cl[Ru]([N](C=C9)=CC=C9\C(C(C=C5)=N/C5=C3C4=CC=CC=C4)=C(N6)/C=C/C6=C(C8=CC=CC=C8)/C2=N/C(C=C2)=C(C7=CC=CC=C7)\C1=CC=C\3N1)(Cl)c.cc%10=CC=C(C(C)C)C=C%10.c%11ccccc%11,419,,DCM,153600,0.098,,0.81,EtOH,,,,,,,10.1007s00775-008-0428-y+Combined arene ruthenium porphyrins as chemotherapeutics and photosensitizers for cancer therapy
1397,3_190,3,TRUE,Cl[Ru]([N]1=CC(\C(C(C=C6)=N/C6=C4C5=CC=CC=C5)=C(N7)/C=C/C7=C(C9=CC=CC=C9)/C3=N/C(C=C3)=C(C8=CC=CC=C8)\C2=CC=C\4N2)=CC=C1)(Cl)c.cc%10=CC=CC=C%10.c%11ccccc%11,419,,DCM,156700,0.095,,0.41,EtOH,,,,,,,10.1007s00775-008-0429-y+Combined arene ruthenium porphyrins as chemotherapeutics and photosensitizers for cancer therapy
1398,3_191,4,TRUE,Cl[Ru]([N]1=CC(\C(C(C=C6)=N/C6=C4C5=CC=CC=C5)=C(N7)/C=C/C7=C(C9=CC=CC=C9)/C3=N/C(C=C3)=C(C8=CC=CC=C8)\C2=CC=C\4N2)=CC=C1)(Cl)c.cc%10=CC=C(C(C)C)C=C%10.c%11ccccc%11,418,,DCM,162400,0.113,,0.64,EtOH,,,,,,,10.1007s00775-008-0430-y+Combined arene ruthenium porphyrins as chemotherapeutics and photosensitizers for cancer therapy
1399,3_192,5,TRUE,cc1=CC=CC=C1.cc2=CC=CC=C2.cc3=CC=CC=C3.Cl[Ru]([N](C=C%12)=CC=C%12\C(C(C=C8)=N/C8=C6C7=CC=[N]([Ru](Cl)(Cl)c)C=C7)=C(N9)/C=C/C9=C(C%11=CC=[N]([Ru](Cl)(Cl)c)C=C%11)/C5=N/C(C=C5)=C(C%10=CC=[N]([Ru](Cl)(Cl)c)C=C%10)\C4=CC=C\6N4)(Cl)c.cc%13=CC=CC=C%13.c%14ccccc%14.c%15ccccc%15.c%16ccccc%16.c%17ccccc%17,423,,DCM,156500,0.074,,0.66,EtOH,,,,,,,10.1007s00775-008-0431-y+Combined arene ruthenium porphyrins as chemotherapeutics and photosensitizers for cancer therapy
1400,3_193,6,TRUE,cc1=CC=C(C(C)C)C=C1.CC(C)C(C=C2)=CC=c2c.CC(C)C(C=C3)=CC=c3c.cc.Cl[Ru]([N](C=C%12)=CC=C%12\C(C(C=C8)=N/C8=C6C7=CC=[N]([Ru](Cl)(Cl)c)C=C7)=C(N9)/C=C/C9=C(C%11=CC=[N]([Ru](Cl)(Cl)c)C=C%11)/C5=N/C(C=C5)=C(C%10=CC=[N]([Ru](Cl)(Cl)c)C=C%10)\C4=CC=C\6N4)(Cl)c.CC(C)C%13=CC=CC=C%13.c%14ccccc%14.c%15ccccc%15.c%16ccccc%16.c%17ccccc%17,422,,DCM,188200,0.079,,0.76,EtOH,,,,,,,10.1007s00775-008-0432-y+Combined arene ruthenium porphyrins as chemotherapeutics and photosensitizers for cancer therapy
1401,3_194,7,TRUE,cc1=CC=CC=C1.cc2=CC=CC=C2.cc3=CC=CC=C3.Cl[Ru]([N]4=CC(\C(C(C=C9)=N/C9=C7C8=CC=C[N]([Ru](Cl)(Cl)c)=C8)=C(N%10)/C=C/C%10=C(C%12=CC=C[N]([Ru](Cl)(Cl)c)=C%12)/C6=N/C(C=C6)=C(C%11=CC=C[N]([Ru](Cl)(Cl)c)=C%11)\C5=CC=C\7N5)=CC=C4)(Cl)c.cc%13=CC=CC=C%13.c%14ccccc%14.c%15ccccc%15.c%16ccccc%16.c%17ccccc%17,423,,DCM,151100,0.081,,0.7,EtOH,,,,,,,10.1007s00775-008-0433-y+Combined arene ruthenium porphyrins as chemotherapeutics and photosensitizers for cancer therapy
1402,3_195,8,TRUE,cc1=CC=C(C(C)C)C=C1.CC(C)C(C=C2)=CC=c2c.CC(C)C(C=C3)=CC=c3c.Cl[Ru]([N]4=CC(\C(C(C=C9)=N/C9=C7C8=CC=C[N]([Ru](Cl)(Cl)c)=C8)=C(N%10)/C=C/C%10=C(C%12=CC=C[N]([Ru](Cl)(Cl)c)=C%12)/C6=N/C(C=C6)=C(C%11=CC=C[N]([Ru](Cl)(Cl)c)=C%11)\C5=CC=C\7N5)=CC=C4)(Cl)c.CC(C)C(C=C%13)=CC=c%13c.c%14ccccc%14.c%15ccccc%15.c%16ccccc%16.c%17ccccc%17,423,,DCM,158400,0.076,,0.79,EtOH,,,,,,,10.1007s00775-008-0434-y+Combined arene ruthenium porphyrins as chemotherapeutics and photosensitizers for cancer therapy
1403,3_196,PpIX,FALSE,[O-]C(CCC/1=C(C)C(/C=C(N4)/C(C)=C(C=C)/C4=C/C5=N/C(C(C=[CH3])=C5C)=C3)=NC1=C/C2=C(CCC([O-])=O)C(C)=C\3N2)=O,407,,D-PBS/TX100,,,,0.75,D-PBS/TX100,,,,,,,"10.1007s10103-019-02907-0+Determination and analysis of singlet oxygen quantum yields of talaporfin sodium, protoporphyrin I"
1404,3_196,PpIX,FALSE,[O-]C(CCC/1=C(C)C(/C=C(N4)/C(C)=C(C=C)/C4=C/C5=N/C(C(C=[CH3])=C5C)=C3)=NC1=C/C2=C(CCC([O-])=O)C(C)=C\3N2)=O,407,,PB/TX100,,,,0.72,PB/TX100,,,,,,,"10.1007s10103-019-02907-0+Determination and analysis of singlet oxygen quantum yields of talaporfin sodium, protoporphyrin I"
1405,3_197,3a,FALSE,OC1=C([H])C([H])=C(I)C=C1/C(C3=CC=C(\C(C9=CC(I)=C([H])C([H])=C9O)=C4/N=C(\C(C8=CC(I)=C([H])C([H])=C8O)=C(C=C7)/N/C7=C5C6=CC(I)=C([H])C([H])=C6O)C=C4)N3)=C2C=CC\5=N/2,423,,DMF,69700,0.17,,0.61,DMF,,,,,,,10.1007s10895-020-02513-2+Design and Synthesis of New Porphyrin Analogues as Potent Photosensitizers for Photodynamic Therap
1406,3_198,3b,FALSE,OC1=C(Br)C([H])=C(Br)C=C1/C(C3=CC=C(\C(C9=CC(Br)=C([H])C(Br)=C9O)=C4/N=C(\C(C8=CC(Br)=C([H])C(Br)=C8O)=C(C=C7)/N/C7=C5C6=CC(Br)=C([H])C(Br)=C6O)C=C4)N3)=C2C=CC\5=N/2,422,,DMF,64200,0.15,,0.64,DMF,,,,,,,
1407,3_199,3c,FALSE,OC1=C([H])C([H])=C(Br)C=C1/C(C3=CC=C(\C(C9=CC(Br)=C([H])C([H])=C9O)=C4/N=C(\C(C8=CC(Br)=C([H])C([H])=C8O)=C(C=C7)/N/C7=C5C6=CC(Br)=C([H])C([H])=C6O)C=C4)N3)=C2C=CC\5=N/2,424,,DMF,72000,0.18,,0.59,DMF,,,,,,,
1408,3_200,3d,FALSE,OC1=C(I)C([H])=C(I)C=C1/C(C3=CC=C(\C(C9=CC(I)=C([H])C(I)=C9O)=C4/N=C(\C(C8=CC(I)=C([H])C(I)=C8O)=C(C=C7)/N/C7=C5C6=CC(I)=C([H])C(I)=C6O)C=C4)N3)=C2C=CC\5=N/2,420,,DMF,61100,0.14,,0.66,DMF,,,,,,,