,index,name,metal_complex,SMILES,max_absorption_peak,max_emission_peak,solvant_spectrum,molar_extinction_coefficient,quantum_yield_fluorescence,max_phosphorescence_peak,quantum_yield_singlet_oxygen,solvant_quantum_yield,energy_level_exited_triplet_state,energy_level_HUMO,energy_level_LUMO,difference_HOMO_and_LUMO,method_for_HOMO/LUMO,all_absoption_peaks,reference_DOI
1750,6_62, Pcs 2,TRUE,CN(C)C(C=C1)=CC=C1C2=CC3=C(C=C2)C4=NC5=[N]6C(C7=CC=CC=C57)=NC8=C9C=CC=CC9=C%10N8[Lu]6%11(OC(C)=O)[N](C(C%12=CC=CC=C%13%12)=N%10)=C%13N=C3N%114.CC%14=CC=C(N(C)C)C=C%14.CC%15=CC=C(N(C)C)C=C%15.CC%16=CC=C(N(C)C)C=C%16,711,709,DMSO,,,,0.28, DMSO,,,,,,,10.1016/j.tetlet.2017.01.019
1751,6_63, Pcs 3,TRUE,C[N+](C)(C)C(C=C1)=CC=C1C2=CC3=C(C=C2)C4=NC5=[N]6C(C7=CC=CC=C57)=NC8=C9C=CC=CC9=C%10N8[Lu]6%11(OC(C)=O)[N](C(C%12=CC=CC=C%13%12)=N%10)=C%13N=C3N%114.CC%14=CC=C([N+](C)(C)C)C=C%14.CC%15=CC=C([N+](C)(C)C)C=C%15.CC%16=CC=C([N+](C)(C)C)C=C%16,686,710,DMSO,,0.169,,0.64, DMSO,,,,,,,10.1016/j.tetlet.2017.01.019
1752,6_64, LI-4,FALSE,CCCCCCCN1C2=CC=CC=C2C3=C1C=CC(C(C=C4)=CC=C4N5C(/C=C(C(O)=O)/C#N)=CC=C5/C=C/C6=CN(CCCCC)C7=CC=CC(C8=CC(C9=CC=CC=C9N%10CCCCCCC)=C%10C=C8)=C76)=C3,470,,ethanol ,38300,,,,,,1.09,-1.18,2.27,electrochemistry,,10.1021/cs5016468
1753,6_65,Phthalocyanine 6,TRUE,O=C(C[NH3+])CCC(OCCOC(C=C1)=CC2=C1C3=[N]4C2=NC5=C6C=CC=CC6=C7N5[Zn@](N89)4[N](C(C%10=C%11C=CC=C%10)=N7)=C%11N=C8C%12=C(C=CC=C%12)C9=N3)=O.COCCOC(CCC(C[NH3+])=O)=O.COCCOC(CCC(C[NH3+])=O)=O.COCCOC(CCC(C[NH3+])=O)=O.CS(=O)([O-])=O.CS(=O)([O-])=O.CS(=O)([O-])=O.CS(=O)([O-])=O,682,,DMSO,,,,0.52, acetonitrile,,,,,,,10.1021/jo901633a
1754,6_65,Phthalocyanine 6,TRUE,O=C(C[NH3+])CCC(OCCOC(C=C1)=CC2=C1C3=[N]4C2=NC5=C6C=CC=CC6=C7N5[Zn@](N89)4[N](C(C%10=C%11C=CC=C%10)=N7)=C%11N=C8C%12=C(C=CC=C%12)C9=N3)=O.COCCOC(CCC(C[NH3+])=O)=O.COCCOC(CCC(C[NH3+])=O)=O.COCCOC(CCC(C[NH3+])=O)=O.CS(=O)([O-])=O.CS(=O)([O-])=O.CS(=O)([O-])=O.CS(=O)([O-])=O,625,,water,,,,,,,,,,,,10.1021/jo901633a
1755,6_66,Phthalocyanine 13,TRUE,O=C(CCC(C[NH3+])=O)OCCOC(C=C1)=CC2=C1C([N]3=C2N=C(N4[Zn@@]35N67)C8=C(C=CC=C8)C4=N9)=NC6=C%10C=CC=CC%10=C7N=C%11[N]5=C9C%12=C%11C=CC=C%12.CS(=O)([O-])=O.CO[C@@H]%13C[C@H](C)CC[C@H]%13C(C)C.CO[C@@H]%14C[C@H](C)CC[C@H]%14C(C)C.CO[C@@H]%15C[C@H](C)CC[C@H]%15C(C)C,682,,DMSO,,,,0.58, acetonitrile,,,,,,,10.1021/jo901633a
1756,6_66,Phthalocyanine 13,TRUE,O=C(CCC(C[NH3+])=O)OCCOC(C=C1)=CC2=C1C([N]3=C2N=C(N4[Zn@@]35N67)C8=C(C=CC=C8)C4=N9)=NC6=C%10C=CC=CC%10=C7N=C%11[N]5=C9C%12=C%11C=CC=C%12.CS(=O)([O-])=O.CO[C@@H]%13C[C@H](C)CC[C@H]%13C(C)C.CO[C@@H]%14C[C@H](C)CC[C@H]%14C(C)C.CO[C@@H]%15C[C@H](C)CC[C@H]%15C(C)C,685,,water,,,,,,,,,,,,10.1021/jo901633a
1757,6_67,conjugate 1,TRUE,COCCOCCOCCOC1=CC=CC2=C1C([N]3=C2N=C(N4[Zn]35N67)C8=C(C=CC=C8OCCOCCOCCOCCOC(NC9=CC(/C=C/C(C%10=CC(OC)=C(OC)C(OC)=C%10)=O)=CC=C9OC)=O)C4=N%11)=NC6=C%12C=CC=C(OCCOCCOCCOC)C%12=C7N=C%13[N]5=C%11C%14=C%13C=CC=C%14OCCOCCOCCOC,700,,acetonitrile,,,,0.55,acetonitrile ,,,,,,,10.1021/mp400207v
1758,6_68,conjugate 2,TRUE,O=C(NC1=CC(/C=C/C(C2=CC(OC)=C(OC)C(OC)=C2)=O)=CC=C1OC)OCCOCCOCCOCCOC3=CC=CC(C4=N5)=C3C(N4[Zn]67N89)=NC%10=[N]6C(C%11=C%10C=CC=C%11OCCOCCOCCOCCOC(NC%12=CC(/C=C/C(C%13=CC(OC)=C(OC)C(OC)=C%13)=O)=CC=C%12OC)=O)=NC8=C%14C=CC=C(OCCOCCOCCOCCOC(NC%15=CC(/C=C/C(C%16=CC(OC)=C(OC)C(OC)=C%16)=O)=CC=C%15OC)=O)C%14=C9N=C%17[N]7=C5C%18=C%17C=CC=C%18OCCOCCOCCOCCOC(NC%19=CC(/C=C/C(C%20=CC(OC)=C(OC)C(OC)=C%20)=O)=CC=C%19OC)=O,698,,acetonitrile,,,,0.51,acetonitrile ,,,,,,,10.1021/mp400207v
1759,6_69,phthalocyanine 5 ,TRUE,COCCOCCOCCOC1=CC=CC2=C1C([N]3=C2N=C(N4[Zn]35N67)C8=C(C=CC=C8OCCOCCOCCOC)C4=N9)=NC6=C%10C=CC=C(OCCOCCOCCOC)C%10=C7N=C%11[N]5=C9C%12=C%11C=CC=C%12OCCOCCOCCOC,695,,acetonitrile,,,,0.83,acetonitrile ,,,,,,,10.1021/mp400207v
1760,6_70,4 (zinc  complexes),TRUE,COCC1=CN=NN1C2=CC=CC=C2.COCC3=CN=NN3C4=CC=CC=C4.COCC5=CN=NN5C6=CC=CC=C6.C7(N(C(C8=C7C=CC=C8)=N9)[Zn]%10%11N%12%13)=NC%14=[N]%10C(C%15=C%14C=CC(OCC%16=CN=NN%16C%17=CC=CC=C%17)=C%15)=NC%12=C%18C=CC=CC%18=C%13N=C%19[N]%11=C9C%20=C%19C=CC=C%20,676,691,DMSO ,72443,0.14,,0.76, DMSO,,,,,,,10.1039/c8ra10665g
1761,6_71, 5(silicon complexes ),FALSE,C1(N(C(C2=C1C=CC=C2)=N3)[Si]45(OCCCCCCOCC6=CN=NN6C7=CC=CC=C7)(OCCCCCCOCC8=CN=NN8C9=CC=CC=C9)N%10%11)=NC%12=[N]4C(C%13=C%12C=CC=C%13)=NC%10=C%14C=CC=CC%14=C%11N=C%15[N]5=C3C%16=C%15C=CC=C%16,671,679,DMSO ,77624,0.28,,0.32, DMSO,,,,,,,10.1039/c8ra10665g
1762,6_72,αGaPc,TRUE,Cl[Ga]12(N34)[N](C(C5=C(OC6=CN=CC=C6)C=CC=C75)=N8)=C7N=C3C9=C(C=CC=C9OC%10=CN=CC=C%10)C4=NC%11=[N]1C(C%12=C%11C(OC%13=CN=CC=C%13)=CC=C%12)=NC%14=C%15C(OC%16=CN=CC=C%16)=CC=CC%15=C8N2%14,705,728,DMSO ,120226,0.12,,0.48,DMSO,,,,,,,10.1142/S1088424607000746
1763,6_73,βGaPc,TRUE,Cl[Ga]12(N34)[N](C(C5=CC=C(OC6=CN=CC=C6)C=C75)=N8)=C7N=C3C9=C(C=CC=C9)C4=NC%10=[N]1C(C%11=C%10C=CC=C%11)=NC%12=C%13C=CC=CC%13=C8N2%12.COC%14=CN=CC=C%14.COC%15=CN=CC=C%15.COC%16=CN=CC=C%16,687,702,DMSO ,123026,0.19,,0.59,DMSO,,,,,,,10.1142/S1088424607000746
1764,6_74,QαGaPc,TRUE,Cl[Ga]12(N34)[N](C(C5=C(OC6=C[N+](C)=CC=C6)C=CC=C75)=N8)=C7N=C3C9=C(C=CC=C9OC%10=C[N+](C)=CC=C%10)C4=NC%11=[N]1C(C%12=C%11C(OC%13=C[N+](C)=CC=C%13)=CC=C%12)=NC%14=C%15C(OC%16=C[N+](C)=CC=C%16)=CC=CC%15=C8N2%14,696,714,DMSO ,186208,0.19,,0.53,DMSO,,,,,,,10.1142/S1088424607000746
1765,6_74,QαGaPc,TRUE,Cl[Ga]12(N34)[N](C(C5=C(OC6=C[N+](C)=CC=C6)C=CC=C75)=N8)=C7N=C3C9=C(C=CC=C9OC%10=C[N+](C)=CC=C%10)C4=NC%11=[N]1C(C%12=C%11C(OC%13=C[N+](C)=CC=C%13)=CC=C%12)=NC%14=C%15C(OC%16=C[N+](C)=CC=C%16)=CC=CC%15=C8N2%14,693,708,H2O ,158489,0.07,,0.41,H2O,,,,,,,10.1142/S1088424607000746
1766,6_75,QβGaPc,TRUE,Cl[Ga]12(N34)[N](C(C5=CC=C(OC6=C[N+](C)=CC=C6)C=C75)=N8)=C7N=C3C9=C(C=CC=C9)C4=NC%10=[N]1C(C%11=C%10C=CC=C%11)=NC%12=C%13C=CC=CC%13=C8N2%12.COC%14=C[N+](C)=CC=C%14.COC%15=C[N+](C)=CC=C%15.COC%16=C[N+](C)=CC=C%16,683,694,DMSO ,177827,0.24,,0.51,DMSO,,,,,,,10.1142/S1088424607000746
1767,6_75,QβGaPc,TRUE,Cl[Ga]12(N34)[N](C(C5=CC=C(OC6=C[N+](C)=CC=C6)C=C75)=N8)=C7N=C3C9=C(C=CC=C9)C4=NC%10=[N]1C(C%11=C%10C=CC=C%11)=NC%12=C%13C=CC=CC%13=C8N2%12.COC%14=C[N+](C)=CC=C%14.COC%15=C[N+](C)=CC=C%15.COC%16=C[N+](C)=CC=C%16,681,694,H2O ,194984,0.12,,0.44,H2O,,,,,,,10.1142/S1088424607000746
1768,6_76,1( phthalocyanine molecules ),TRUE,COCCOCCOCCSC1=CC2=C(C([N]3=C2N=C(N4[Zn]35N67)C8=C(C=CC(SC9=CC=C(C(O)=O)C=C9)=C8)C4=N%10)=NC6=C%11C=C(SCCOCCOCCOC)C(SCCOCCOCCOC)=CC%11=C7N=C%12[N]5=C%10C%13=C%12C=C(SCCOCCOCCOC)C(SCCOCCOCCOC)=C%13)C=C1SCCOCCOCCOC,680,694,DMSO,50118,0.13,,0.53,DMSO,,,,,,,10.1142/S1088424614500709
1769,6_77,2( phthalocyanine molecules ),TRUE,COCCOCCOCCSC1=CC2=C(C([N]3=C2N=C(N4[Zn]35N67)C8=C(C=CC(SCCC(O)=O)=C8)C4=N9)=NC6=C%10C=C(SCCOCCOCCOC)C(SCCOCCOCCOC)=CC%10=C7N=C%11[N]5=C9C%12=C%11C=C(SCCOCCOCCOC)C(SCCOCCOCCOC)=C%12)C=C1SCCOCCOCCOC,679,693,DMSO,70794,0.27,,0.49,DMSO,,,,,,,10.1142/S1088424614500709
1770,6_78,Pc1 ,TRUE,CCCCCCSC1=CC2=C(C([N]3=C2N=C(N4[Zn@@]35N67)C8=C(C=CC(C#CC(O)=O)=C8)C4=N9)=NC6=C%10C=C(SCCCCCC)C(SCCCCCC)=CC%10=C7N=C%11[N]5=C9C%12=C%11C=C(SCCCCCC)C(SCCCCCC)=C%12)C=C1SCCCCCC,694,704,THF,83176,0.13,,0.84,THF,,,,,,,10.1142/S1088424619501402
1771,6_79,Pc2,TRUE,O=C(C#CC1=CC2=C(C=C1)C3=NC4=[N]5C(C6=C4C=CC=C6)=NC7=C8C=CC=CC8=C9N7[Zn@@]%105[N](C(C%11=C%12C=CC=C%11)=N9)=C%12N=C2N%103)O.CCCCCCSC.CCCCCCSC.CCCCCCSC,679,687,THF,67608,0.31,,0.66,THF,,,,,,,10.1142/S1088424619501402
1772,6_80,Pc3,TRUE,CCCCCCSC1=CC2=C(C([N]3=C2N=C(N4[Zn@@]35N67)C8=C(C=CC(C(O)=O)=C8)C4=N9)=NC6=C%10C=C(SCCCCCC)C(SCCCCCC)=CC%10=C7N=C%11[N]5=C9C%12=C%11C=C(SCCCCCC)C(SCCCCCC)=C%12)C=C1SCCCCCC,699,707,THF,81283,0.1,,0.88,THF,,,,,,,10.1142/S1088424619501402
1773,6_81,Pc4,TRUE,O=C(C1=CC2=C(C=C1)C3=NC4=[N]5C(C6=C4C=CC=C6)=NC7=C8C=CC=CC8=C9N7[Zn@@]%105[N](C(C%11=C%12C=CC=C%11)=N9)=C%12N=C2N%103)O.CCCCCCSC.CCCCCCSC.CCCCCCSC,684,696,THF,100000,0.25,,0.65,THF,,,,,,,10.1142/S1088424619501402
1774,6_82, tCz-ZnPc,TRUE,CC(C1=CC2=C(CC1)[N@@](C3=C2C=C(C(C)(C)C)C=C3)[C@@]([C@]([N@]4C5=C(C=C(C(C)(C)C)C=C5)C6=C4CCC(C(C)(C)C)=C6)=C7)=CC(C8=N9)=C7C(N8[Zn]%10%11N%12%13)=NC%14=[N]%10C(C%15=C%14C=[C@@]([N@@]%16C%17=C(C=C(C(C)(C)C)CC%17)C%18=C%16C=CC(C(C)(C)C)=C%18)[C@]([N@]%19C%20=C(C=C(C(C)(C)C)CC%20)C%21=C%19C=C(C(C)(C)C)C=C%21)=C%15)=NC%12=C%22C=[C@@]([N@@]%23C%24=C(C=C(C(C)(C)C)CC%24)C%25=C%23C=CC(C(C)(C)C)=C%25)[C@]([N@]%26C%27=C(C=C(C(C)(C)C)CC%27)C%28=C%26C=CC(C(C)(C)C)=C%28)=CC%22=C%13N=C%29[N]%11=C9C%30=CC(C(O)=O)=CC=C%29%30)(C)C,350,,THF,,,,,,,-5.249,-3.447,-1.802,theoretical,,10.3390/molecules25071692
1775,6_83,KMH63,TRUE,CC(C)(C)C(C=C1)=CC=C1SC2=CC=C(SC3=CC=C(C(C)(C)C)C=C3)C4=C2C5=[N]6C4=NC7=C8C=C(C9=CC=C(C(O)=O)C=C9)C=CC8=C%10N7[Zn](N%11%12)6[N](C(C%13=C%14C(CC%15=CC=C(C(C)(C)C)C=C%15)=CC=C%13CC%16=CC=C(C(C)(C)C)C=C%16)=N%10)=C%14N=C%11C%17=C(C(CC%18=CC=C(C(C)(C)C)C=C%18)=CC=C%17CC%19=CC=C(C(C)(C)C)C=C%19)C%12=N5,768,787,dichloromethane,75500,,,,,,-4.992,-2.882,-2.11,theoretical,,10.5802/crchim.113
1776,6_84,Phthalocyanine 5  ,TRUE,[N-]=[N+]=NCCOC(C1=C2N3[Zn](N45)6[N](C(C7=C8C(OCCN=[N+]=[N-])=CC=C7OCCN=[N+]=[N-])=N2)=C8N=C4C9=C(C(OCCN=[N+]=[N-])=CC=C9OCCN=[N+]=[N-])C5=N%10)=CC=C(OCCN=[N+]=[N-])C1=C3N=C%11[N]6=C%10C%12=C%11C(OCCN=[N+]=[N-])=CC=C%12OCCN=[N+]=[N-],733,746,DMSO,87096,0.09,,0.83,DMSO,,,,,,,10.35378/gujs.807707
1777,6_85,SPC ,TRUE,CN(CC)CC.CN(CC)CC.CN(CC)CC.CN(C(C[O])=O)C(C[O])=O.C1(N(C(C2=C1C=CC=C2)=N3)[Zn]45N67)=NC8=[N]4C(C9=C8C=CC=C9)=NC6=C%10C=CC=CC%10=C7N=C%11[N]5=C3C%12=C%11C=CC=C%12,686,,DMF,23442,,,,,,5.35,3.54,1.81,electrochemistry,,10.14233/ajchem.2014.15662
1778,6_86,TPC ,TRUE,CN(CCC)CCC.CN(CCC)CCC.CN(CCC)CCC.CN(C(C[O])=O)C(C[O])=O.C1(N(C(C2=C1C=CC=C2)=N3)[Zn]45N67)=NC8=[N]4C(C9=C8C=CC=C9)=NC6=C%10C=CC=CC%10=C7N=C%11[N]5=C3C%12=C%11C=CC=C%12,690,,DMF,33113,,,,,,5.4,3.6,1.8,electrochemistry,,10.14233/ajchem.2014.15662
1779,6_87,FPC ,TRUE,CN(CCCC)CCCC.CN(CCCC)CCCC.CN(CCCC)CCCC.CN(C(C[O])=O)C(C[O])=O.C1(N(C(C2=C1C=CC=C2)=N3)[Zn]45N67)=NC8=[N]4C(C9=C8C=CC=C9)=NC6=C%10C=CC=CC%10=C7N=C%11[N]5=C3C%12=C%11C=CC=C%12,687,,DMF,25703,,,,,,5.4,3.6,1.8,electrochemistry,,10.14233/ajchem.2014.15662
1780,7_0,EOS,FALSE,ClC1=CC2=C(C3=C(C([O-])=O)C([H])=C([H])C([H])=C3[H])C4=CC(Cl)=C([O-])C(Cl)=C4OC2=C(Cl)C1=O,517,530,aqueous solution at pH 7.25(Na2HPO4 and NaCl),,0.25,555,,,,,,,,,10.5935/0103-5053.20160079
1781,7_1,ERY,FALSE,IC1=CC2=C(C3=C(C([O-])=O)C([H])=C([H])C([H])=C3[H])C4=CC(I)=C([O-])C(I)=C4OC2=C(I)C1=O,532,545,aqueous solution at pH 7.25(Na2HPO4 and NaCl),,0.09,555,,,,,,,,,10.5935/0103-5053.20160079
1782,7_2,RBB,FALSE,IC1=CC2=C(C3=C(C([O-])=O)C(Cl)=C(Cl)C(Cl)=C3Cl)C4=CC(I)=C([O-])C(I)=C4OC2=C(I)C1=O,543,560,aqueous solution at pH 7.25(Na2HPO4 and NaCl),,0.08,555,,,,,,,,,10.5935/0103-5053.20160079
1783,7_3,RB-TYR,FALSE,IC1=CC(C(OC2=C3C=C(I)C(O)=C2I)=C(I)C1=O)=C3C4=C(C(NCCC5=CC=C(O)C=C5)=O)C(Cl)=C(Cl)C(Cl)=C4Cl,500,538,DPBS,,,,,,,,,,,,10.3390/ijms21124456
1784,7_4,G2-RB,FALSE,C[Si](CCC[Si](CCSCCN(C)C)(CCSCCN(C)C)C)(CCC[Si](CCSCCN(C)C)(CCSCCN(C)C)C)CCCCN1CCN(C2=NC(NCCCCCCCCCCCCC)=NC(NCCCCCCCCCCCC)=N2)CC1,562,355,mQ water,,,,,,,,,,,,10.2147/IJN.S352349
1785,7_5,G3-RB,FALSE,C[Si](CCC[Si](CCC[Si](C)(CCSCCN(C)C)CCSCCN(C)C)(CCC[Si](CCSCCN(C)C)(CCSCCN(C)C)C)C)(CCC[Si](CCC[Si](CCSCCN(C)C)(CCSCCN(C)C)C)(C)CCC[Si](C)(CCSCCN(C)C)CCSCCN(C)C)CCCCN1CCN(C2=NC(NCCCCCCCCCCCCC)=NC(NCCCCCCCCCCCC)=N2)CC1.C,562,430,mQ water,,,,,,,,,,,,10.2147/IJN.S35234
1786,7_6,CSRB,FALSE,IC1=C(O[Na])C(I)=C(O2)C(C(C3=C(C(N[C@@H]4[C@@H](O)[C@H](C[*])[C@@H](CO)O[C@H]4CO[*])=O)C(Cl)=C(Cl)C(Cl)=C3Cl)=C(C2=C5I)C=C(I)C5=O)=C1,565,,deionized water,,,,,,,,,,,,10.1128/AAC.00810-1
1787,7_7,rose bengal,FALSE,IC1=CC2=C(C3=C(Cl)C(Cl)=C(Cl)C(Cl)=C3C([O-])=O)C4=CC(I)=C([O-])C(I)=C4OC2=C(I)C1=O,559,,water,90400,,,,,,,,,,,10.1115/1.2391319
1788,7_8,RB,FALSE,IC1=C(O[Na])C(I)=C(OC(C2=C3C4=C(C(O[Na])=O)C(Cl)=C(Cl)C(Cl)=C4Cl)=C(I)C(C(I)=C2)=O)C3=C1,549,,saline,,,561,0.75,water,,,,,,,10.1115/1.2391319
1789,7_8,RB,FALSE,IC1=C(O[Na])C(I)=C(OC(C2=C3C4=C(C(O[Na])=O)C(Cl)=C(Cl)C(Cl)=C4Cl)=C(I)C(C(I)=C2)=O)C3=C1,563,,PBS solution,,,,,,,,,,,,10.1115/1.2391319
1790,7_8,RB,FALSE,IC1=C(O[Na])C(I)=C(OC(C2=C3C4=C(C(O[Na])=O)C(Cl)=C(Cl)C(Cl)=C4Cl)=C(I)C(C(I)=C2)=O)C3=C1,561,,free-dye solution,,,,,,,,,,,,10.1115/1.2391319
1791,7_10,XE-P,FALSE,CC1=CC(C2=CC(/C=C3CCCC4=C\3[O+]=C(C=C(N(CC)CC)C=C5)C5=C4C6=CC=CC=C6C(O)=O)=CC=N2)=NC=C1,541,545,ethanol,,0.183,,0,PBS,,,,,,,10.1039/D1BM00128K
1792,7_11,NIR-Ir-XE,TRUE,CC1=CC(C2=CC(/C=C3CCCC4=C\3[O+]=C(C=C(N(CC)CC)C=C5)C5=C4C6=CC=CC=C6C(O)=O)=CC=[N]2[Ir]78C9=C(C%10=[N]8C(C=CC=C%11)=C%11C=C%10)SC%12=C9C=CC=C%12)=[N]7C=C1,510,651,ethanol,,0.03,,0.72,PBS,,,,,,,10.1039/D1BM00128K
1793,7_12,NIR-Ir-bpy,TRUE,[N]1([Ir]23C4=C(C5=[N]3C(C=CC=C6)=C6C=C5)SC7=C4C=CC=C7)=CC=CC=C1C8=[N]2C=CC=C8,508,652,ethanol,,0.013,,0.29,PBS,,,,,,,10.1039/D1BM00128K
1794,7_13,xanthene dye,FALSE,OC1=C(Br)C2=C(C3(C(C=CC=C4)=C4C(O3)=O)C(C=C(Br)C(O)=C5Br)=C5C2)C=C1Br,549,,water,,,,0.76,water,,,,,,,10.1039/c9tc04163j
1795,7_14,"共封装的 NaYF4:2%Er3+,20%Yb3+ NPs +RB",FALSE,IC(C([O-])=C1I)=CC(C23C(C(Cl)=C(Cl)C(Cl)=C4Cl)=C4C(O2)=O)=C1OC5=C3C=C(I)C([O-])=C5I.[Na+].[Na+],575,600,biological serum ,,,,,,,-0.64,-3.25,2.61,electrochemistry,,10.1039/c9tc04163j
1796,7_16,RB-SILLP,FALSE,CCN1CC[N+](C)C1.CC[N+]2CCN(C)C2.[Na]Cl.[Cl-],557,,washing liquid,,,,,,,,,,,,10.1002/cssc.201901533
1797,7_17,"dibenzo[b, h]xanthene-5,6,8,13-tetrone derivatives-1a",FALSE,O=C1C2=C(C=CC=C2)C3=C(C(C4=CC=C([H])C([H])=C4[H])C(C(C(C=CC=C5)=C5C6=O)=O)=C6O3)C1=O,250,,acetonitrile,,,,0.5,air-saturated acetonitrile,,,,,,,10.1002/slct.201702649
1798,7_18,"dibenzo[b, h]xanthene-5,6,8,13-tetrone derivatives-1b",FALSE,O=C1C2=C(C=CC=C2)C3=C(C(C4=CC=C([H])C(Cl)=C4[H])C(C(C(C=CC=C5)=C5C6=O)=O)=C6O3)C1=O,250,,acetonitrile,,,,0.16,air-saturated acetonitrile,,,,,,,10.1002/slct.201702649
1799,7_19,"dibenzo[b, h]xanthene-5,6,8,13-tetrone derivatives-1c",FALSE,O=C1C2=C(C=CC=C2)C3=C(C(C4=CC=C(Cl)C([H])=C4[H])C(C(C(C=CC=C5)=C5C6=O)=O)=C6O3)C1=O,250,,acetonitrile,,,,0.22,air-saturated acetonitrile,,,,,,,10.1002/slct.201702649
1800,7_20,"dibenzo[b, h]xanthene-5,6,8,13-tetrol acetates-2a",FALSE,[H]C(C([H])=C1[H])=CC=C1C2C3=C(OC(C)=O)C(OC(C)=O)=C4C=CC=CC4=C3OC5=C(OC(C)=O)C6=C(C=CC=C6)C(OC(C)=O)=C25,230,360,acetonitrile,,,,0.23,air-saturated acetonitrile,,,,,,,10.1002/slct.201702649
1801,7_21,"dibenzo[b, h]xanthene-5,6,8,13-tetrol acetates-2b",FALSE,[H]C(C(Cl)=C1[H])=CC=C1C2C3=C(OC(C)=O)C(OC(C)=O)=C4C=CC=CC4=C3OC5=C(OC(C)=O)C6=C(C=CC=C6)C(OC(C)=O)=C25,230,355,acetonitrile,,,,0.3,air-saturated acetonitrile,,,,,,,10.1002/slct.201702649
1802,7_22,"dibenzo[b, h]xanthene-5,6,8,13-tetrol acetates-2c",FALSE,ClC(C([H])=C1[H])=CC=C1C2C3=C(OC(C)=O)C(OC(C)=O)=C4C=CC=CC4=C3OC5=C(OC(C)=O)C6=C(C=CC=C6)C(OC(C)=O)=C25,230,350,acetonitrile,,,,0.16,air-saturated acetonitrile,,,,,,,10.1002/slct.201702649
1803,7_23,"Rose Bengal, Na salt ",FALSE,IC(C(C(I)=C1OC(C2=C3)=C(I)C(O[Na])=C3I)=O)=CC1=C2C4=C(C(O[Na])=O)C(Cl)=C(Cl)C(Cl)=C4Cl,558,577,ethanolic solution,,0.11,,0.68,EtOH,,,,,,,10.1007/s10570-015-0715-y
1804,7_24,"Sodium 2,4,5,7-tetraiodo-3-oxo-9-{2,3,4,5-
tetrachloro-6-[(prop-2-yn-1-yloxy)carbonyl] phenyl}-
3H-xanthen-6-olate (1)",FALSE,IC(C([O-])=C1I)=CC2=C1OC(C3=C2C4=C(C(OCC#C)=O)C(Cl)=C(Cl)C(Cl)=C4Cl)=C(I)C(C(I)=C3)=O.[Na+],568,589,ethanolic solution,,0.18,,0.82,EtOH,,,,,,,10.1007/s10570-015-0715-y
1805,7_25,"Sodium 2,4,5,7-tetrabromo-3-oxo-9-{2-[(prop-2-yn-
1-yloxy)carbonyl]phenyl}-3H-xanthen-6-olate (2)",FALSE,BrC(C([O-])=C1Br)=CC2=C1OC(C3=C2C4=C(C(OCC#C)=O)C([H])=C([H])C([H])=C4[H])=C(Br)C(C(Br)=C3)=O.[Na+],537,557,ethanolic solution,,0.53,,0.45,EtOH,,,,,,,10.1007/s10570-015-0715-y
1806,7_26,FAFD-FI,FALSE,Cl[C@@]12C3=C([C@]4(C5=CC=C(CC([O-])=O)C=C5)C6=C7C=CC8=C6[C@](C9=CC=C(CC([O-])=O)C=C9)3C%10=C8C=CC(C%10%11)=C%12C=CC%13C%14C%15C([C@@]%16%17C%18=CC=C(CC([O-])=O)C=C%18)=C(C=C%14)C%19=C%16C4=C7C=C%19)C%17=C1[C@@]%15(C%20=CC=C(CC([O-])=O)C=C%20)C%13=C%12[C@@]2%11C%21=CC=C(CC(NCCNC(NC%22=CC(C([O-])=O)=C(C(C(C=CC(O)=C%23)=C%23O%24)=C%25C%24=CC(C=C%25)=O)C=C%22)=S)=O)C=C%21.[K+].[K+].[K+].[K+].[K+],484,515,water(pH=6.6),,,,,,,,,,,,10.1016/j.dyepig.2018.06.041
1807,7_27,FCFD-FI,FALSE,[H][C@@]12C3=C([C@]4(SCC[NH3+])C5=C(C6=C4C([C@]7(SCC[NH3+])C8=C9C=CC%10C8%11)=C9C=C6)C=CC%12=C5[C@](SCCNC(NC%13=CC(C([O-])=O)=C(C%14=C%15C=CC(C=C%15OC%16=C%14C=CC(O)=C%16)=O)C=C%13)=S)3C%17=C%12C=CC%18C%17%19)C7=C1[C@@]%11(SCC[NH3+])C%20=C(C%18C=CC%20%10)[C@@]2%19SCC[NH3+].FC(F)(C([O-])=O)F.FC(F)(C([O-])=O)F.FC(F)(C([O-])=O)F.FC(F)(C([O-])=O)F.[H+],500,515,water(pH=6.6),,,,,,,,,,,,10.1016/j.dyepig.2018.06.041
1808,7_28,OCF,FALSE,OC1=C(Cl)C=C(C(C2=C(Cl)C(Cl)=C(Cl)C(Cl)=C2C(O)=O)=C(C=C3Cl)C(O4)=C(Cl)C3=O)C4=C1Cl,537,553,water（pH=9）,,0.628,680,0.16,a mixed solvent of D2O and CH3CN,,,,,,,10.1016/j.dyepig.2019.107635
1809,7_29,fluorescein,FALSE,OC1=CC=C(C(C2=CC=CC=C2C(O)=O)=C(C=C3)C(O4)=CC3=O)C4=C1,491,514,water（pH=9）,,0.848,633,0.03,a mixed solvent of D2O and CH3CN,,,,,,,10.1016/j.dyepig.2019.107635
1810,7_31,FL,FALSE,O=C(NC(CCCCN=N)C(NC(CCCNC(N=N)=N)C1=O)=O)C(CC2=CC=C(O)C=C2)NC(C(CC(O)=O)NC(CN1)=O)=O,645,650,PBS,,,,0.58,PBS,,,,,,,10.1016/j.jconrel.2019.08.001
1811,7_32,FL-RGD,FALSE,O=C(NC(CCCCNC(C1=CC=C(C(C(C=C(Cl)C(O)=C2CCC3=C/C(C=C(C)O3)=C(C#N)/C#N)=C2O4)=C5C4=C(CCC(OC(C)=C/6)=CC6=C(C#N)\C#N)C(C(Cl)=C5)=O)C=C1)=O)C(NC(CCCNC(N=N)=N)C7=O)=O)C(CC8=CC=C(O)C=C8)NC(C(CC(O)=O)NC(CN7)=O)=O,650,670,PBS,,,,0.41,PBS,,,,,,,10.1016/j.jconrel.2019.08.001
1812,7_33,ConA-RB,FALSE,O=C(NC(CCCCN=N)C(NC(CCCNC(N=N)=N)C1=O)=O)C(CC2=CC=C(O)C=C2)NC(C(CC(O)=O)NC(CN1)=O)=O,560,,deuterated water.,,,,0.24,deuterated water.,,,,,,,10.1016/j.jphotobiol.2020.111852
1813,7_34,RBB,FALSE,IC1=CC2=C(C3=C(C(O)=O)C(Cl)=C(Cl)C(Cl)=C3Cl)C4=CC(I)=C([O-])C(I)=C4OC2=C(I)C1=O,560,,ethanol,,0.02,,0.86,EtOH,,,,,,,10.1016/j.molliq.2017.01.055
1814,7_34,RBB,FALSE,IC1=CC2=C(C3=C(C(O)=O)C(Cl)=C(Cl)C(Cl)=C3Cl)C4=CC(I)=C([O-])C(I)=C4OC2=C(I)C1=O,548,,PH=8.0,,,,0.86,EtOH,,,,,,,10.1016/j.molliq.2017.01.055
1815,7_35,RBMET,FALSE,IC1=CC2=C(C3=C(C(OC)=O)C(Cl)=C(Cl)C(Cl)=C3Cl)C4=CC(I)=C([O-])C(I)=C4OC2=C(I)C1=O,573,,"pH = 7.25 (Mcllvaine buffer, [Na2HPO4] = [citric acid] = 7.5 × 10−3 mol L−1), with controlled ionic strength by addition of NaCl (0.10 mol L−1)",,0.01,,0.83,EtOH,,,,,,,10.1016/j.molliq.2017.01.055
1816,7_36,RBBUT,FALSE,IC1=CC2=C(C3=C(C(OCCCC)=O)C(Cl)=C(Cl)C(Cl)=C3Cl)C4=CC(I)=C([O-])C(I)=C4OC2=C(I)C1=O,573,,"pH = 7.25 (Mcllvaine buffer, [Na2HPO4] = [citric acid] = 7.5 × 10−3 mol L−1), with controlled ionic strength by addition of NaCl (0.10 mol L−1)",,,,0.89,EtOH,,,,,,,10.1016/j.molliq.2017.01.055
1817,7_37,RBDEC,FALSE,IC1=CC2=C(C3=C(C(OCCCCCCCCCC)=O)C(Cl)=C(Cl)C(Cl)=C3Cl)C4=CC(I)=C([O-])C(I)=C4OC2=C(I)C1=O,573,,"pH = 7.25 (Mcllvaine buffer, [Na2HPO4] = [citric acid] = 7.5 × 10−3 mol L−1), with controlled ionic strength by addition of NaCl (0.10 mol L−1)",,,,0.88,EtOH,,,,,,,10.1016/j.molliq.2017.01.055
1818,7_38,DPBF,FALSE,C12=C(C3=CC=CC=C3)OC(C4=CC=CC=C4)=C1C=CC=C2,400,,methanol,,,,0.81,methanol,,,,,,,10.1021/acsabm.0c00586
1819,7_39,NCs:RB=3:1,FALSE,O=C(N1Cl)CCC1=O,,,,,,,,,,,,,,,10.1021/acsomega.1c00838
1820,7_39,NCs:RB=1:1,FALSE,O=C(N1Cl)CCC1=O,550,,D2O,,,,0.47,D2O,,,,,,,10.1021/acsomega.1c00838
1821,7_39,NCs:RB=0.3:1,FALSE,O=C(N1Cl)CCC1=O,,,,,,,,,,,,,,,10.1021/acsomega.1c00838
1822,8_164,DPAHB,FALSE,O=C(C=C1OC)C2=C(C3=C4C5=C2NC(C)(C)CN5)C1=C(C(OC)=C6)C(C3=C(C(C(C)=O)C(C)=C4)C(OC)=C7O)=C7C6=O,630,710,water,36300,0.011,,0.33,water,,,,,,"465.0, 630.0",org/10.1016/j.biomaterials.2018.09.021
1823,8_0,APHB,FALSE,O=C(C=C1OC)C2=C(C3=C4C5=C2NC(C)CN5)C1=C(C(OC)=C6)C(C3=C(C(C(C)=O)C(C)=C4)C(OC)=C7O)=C7C6=O,630,710,water,32000,0.013,,,,,,,,,"460.0, 626.0",org/10.1021/acsami.9b03270
1824,8_1,HE,FALSE,O=C1C=C(OC)C2=C(C3=C4C(O)=C(NC5CCCCC5)C6=C3C7=C(C(C(C)=O)C(C)=C6)C(OC)=C(O)C1=C27)C(OC)=C8C4=NCCS8,640,805,DMSO,21400,0.039,,0.27,DMF,,,,,,640,org/10.1002/asia.202000911
1825,8_2,HF,FALSE,O=C1C=C(OC)C2=C(C3=C4C(O)=C(NC5CCCC5)C6=C3C7=C(C(C(C)=O)C(C)=C6)C(OC)=C(O)C1=C27)C(OC)=C8C4=NCCS8,640,805,DMSO,24000,0.031,,0.31,DMF,,,,,,640,org/10.1002/asia.202000911
1826,8_3,1,FALSE,OC1=CC(OC)=C2C(C(C3=C4OC)=C(/C(C(C(C)=O)=C3C(C)=O)=C(OC)\C=O)C5=CC(O)=CC(OC)=C25)=C1C4=O,,,,,,,,,,,,,,,"zhao kaihong,jiang lijin.zhu hong jun su de jie gou xiu shi[J].you ji hua xue,1990(04):339-323."